<?xml version="1.0" encoding="UTF-8"?>

<!-- generated on 2025-11-11 15:33:39 by Eclipse SUMO sumo Version 1.24.0
<sumoConfiguration xmlns:xsi="http://www.w3.org/2001/XMLSchema-instance" xsi:noNamespaceSchemaLocation="http://sumo.dlr.de/xsd/sumoConfiguration.xsd">

    <input>
        <net-file value="D:\Rafa\TrafficCongestionPoliciesEffect-SimulationAndModulation\automate_flow\core\manhattan.net.xml"/>
        <route-files value="sumo_runs\flows\flows_sim1_day7_policy_bus_subsidy.xml"/>
    </input>

    <output>
        <emission-output value="sumo_runs\raw_xml\emissions_sim1_day7_policy_bus_subsidy.xml"/>
        <tripinfo-output value="sumo_runs\raw_xml\tripinfo_sim1_day7_policy_bus_subsidy.xml"/>
    </output>

    <report>
        <no-warnings value="true"/>
        <duration-log.statistics value="true"/>
    </report>

</sumoConfiguration>
-->

<tripinfos xmlns:xsi="http://www.w3.org/2001/XMLSchema-instance" xsi:noNamespaceSchemaLocation="http://sumo.dlr.de/xsd/tripinfo_file.xsd">
    <tripinfo id="flow_0.0" depart="0.00" departLane="A4B4_0" departPos="4.60" departSpeed="0.00" departDelay="0.00" arrival="59.00" arrivalLane="E2D2_0" arrivalPos="85.60" arrivalSpeed="13.64" duration="59.00" routeLength="675.81" waitingTime="0.00" waitingCount="0" stopTime="0.00" timeLoss="9.71" rerouteNo="0" devices="tripinfo_flow_0.0 emissions_flow_0.0" vType="car" speedFactor="1.06" vaporized="">
        <emissions CO_abs="1854.83" CO2_abs="172724.53" HC_abs="12.38" PMx_abs="2.90" NOx_abs="68.63" fuel_abs="55107.47" electricity_abs="0.00"/>
    </tripinfo>
    <tripinfo id="flow_1.0" depart="0.00" departLane="A2A3_0" departPos="7.60" departSpeed="0.00" departDelay="0.00" arrival="77.00" arrivalLane="C0B0_0" arrivalPos="85.60" arrivalSpeed="9.62" duration="77.00" routeLength="661.89" waitingTime="0.00" waitingCount="0" stopTime="0.00" timeLoss="9.38" rerouteNo="0" devices="tripinfo_flow_1.0 emissions_flow_1.0" vType="bus" speedFactor="0.94" vaporized="">
        <emissions CO_abs="2226.91" CO2_abs="158578.22" HC_abs="13.94" PMx_abs="2.83" NOx_abs="63.64" fuel_abs="50592.66" electricity_abs="0.00"/>
    </tripinfo>
    <tripinfo id="flow_1.1" depart="588.00" departLane="A2A3_0" departPos="7.60" departSpeed="0.00" departDelay="0.24" arrival="667.00" arrivalLane="C0B0_0" arrivalPos="85.60" arrivalSpeed="9.93" duration="79.00" routeLength="661.89" waitingTime="0.00" waitingCount="0" stopTime="0.00" timeLoss="10.46" rerouteNo="0" devices="tripinfo_flow_1.1 emissions_flow_1.1" vType="bus" speedFactor="1.01" vaporized="">
        <emissions CO_abs="2293.87" CO2_abs="164517.04" HC_abs="14.34" PMx_abs="2.81" NOx_abs="64.95" fuel_abs="52487.69" electricity_abs="0.00"/>
    </tripinfo>
    <tripinfo id="flow_1.2" depart="1176.00" departLane="A2A3_0" departPos="7.60" departSpeed="0.00" departDelay="0.48" arrival="1253.00" arrivalLane="C0B0_0" arrivalPos="85.60" arrivalSpeed="9.36" duration="77.00" routeLength="661.89" waitingTime="0.00" waitingCount="0" stopTime="0.00" timeLoss="9.16" rerouteNo="0" devices="tripinfo_flow_1.2 emissions_flow_1.2" vType="bus" speedFactor="1.08" vaporized="">
        <emissions CO_abs="2194.89" CO2_abs="157964.55" HC_abs="13.74" PMx_abs="2.69" NOx_abs="62.32" fuel_abs="50397.20" electricity_abs="0.00"/>
    </tripinfo>
    <tripinfo id="flow_0.1" depart="1631.00" departLane="A4B4_0" departPos="4.60" departSpeed="0.00" departDelay="0.81" arrival="1690.00" arrivalLane="E2D2_0" arrivalPos="85.60" arrivalSpeed="13.78" duration="59.00" routeLength="675.81" waitingTime="0.00" waitingCount="0" stopTime="0.00" timeLoss="9.91" rerouteNo="0" devices="tripinfo_flow_0.1 emissions_flow_0.1" vType="car" speedFactor="1.03" vaporized="">
        <emissions CO_abs="1892.41" CO2_abs="174077.61" HC_abs="12.78" PMx_abs="3.03" NOx_abs="70.23" fuel_abs="55538.74" electricity_abs="0.00"/>
    </tripinfo>
    <tripinfo id="flow_1.3" depart="1764.00" departLane="A2A3_0" departPos="7.60" departSpeed="0.00" departDelay="0.72" arrival="1844.00" arrivalLane="C0B0_0" arrivalPos="85.60" arrivalSpeed="8.72" duration="80.00" routeLength="661.89" waitingTime="0.00" waitingCount="0" stopTime="0.00" timeLoss="11.20" rerouteNo="0" devices="tripinfo_flow_1.3 emissions_flow_1.3" vType="bus" speedFactor="0.83" vaporized="">
        <emissions CO_abs="2528.64" CO2_abs="173685.55" HC_abs="15.63" PMx_abs="3.06" NOx_abs="69.00" fuel_abs="55412.54" electricity_abs="0.00"/>
    </tripinfo>
    <tripinfo id="flow_1.4" depart="2352.00" departLane="A2A3_0" departPos="7.60" departSpeed="0.00" departDelay="0.96" arrival="2429.00" arrivalLane="C0B0_0" arrivalPos="85.60" arrivalSpeed="9.66" duration="77.00" routeLength="661.89" waitingTime="0.00" waitingCount="0" stopTime="0.00" timeLoss="9.01" rerouteNo="0" devices="tripinfo_flow_1.4 emissions_flow_1.4" vType="bus" speedFactor="1.05" vaporized="">
        <emissions CO_abs="2305.87" CO2_abs="167416.99" HC_abs="14.43" PMx_abs="2.73" NOx_abs="65.03" fuel_abs="53413.22" electricity_abs="0.00"/>
    </tripinfo>
    <tripinfo id="flow_1.5" depart="2939.00" departLane="A2A3_0" departPos="7.60" departSpeed="0.00" departDelay="0.20" arrival="3017.00" arrivalLane="C0B0_0" arrivalPos="85.60" arrivalSpeed="9.54" duration="78.00" routeLength="661.89" waitingTime="0.00" waitingCount="0" stopTime="0.00" timeLoss="8.97" rerouteNo="0" devices="tripinfo_flow_1.5 emissions_flow_1.5" vType="bus" speedFactor="0.89" vaporized="">
        <emissions CO_abs="2250.75" CO2_abs="164531.80" HC_abs="14.15" PMx_abs="2.78" NOx_abs="64.85" fuel_abs="52492.50" electricity_abs="0.00"/>
    </tripinfo>
    <tripinfo id="flow_0.2" depart="3261.00" departLane="A4B4_0" departPos="4.60" departSpeed="0.00" departDelay="0.62" arrival="3324.00" arrivalLane="E2D2_0" arrivalPos="85.60" arrivalSpeed="12.61" duration="63.00" routeLength="675.81" waitingTime="0.00" waitingCount="0" stopTime="0.00" timeLoss="10.12" rerouteNo="0" devices="tripinfo_flow_0.2 emissions_flow_0.2" vType="car" speedFactor="0.94" vaporized="">
        <emissions CO_abs="1837.94" CO2_abs="162917.31" HC_abs="12.34" PMx_abs="2.85" NOx_abs="65.96" fuel_abs="51977.80" electricity_abs="0.00"/>
    </tripinfo>
    <tripinfo id="flow_1.6" depart="3527.00" departLane="A2A3_0" departPos="7.60" departSpeed="0.00" departDelay="0.44" arrival="3605.00" arrivalLane="C0B0_0" arrivalPos="85.60" arrivalSpeed="9.65" duration="78.00" routeLength="661.89" waitingTime="0.00" waitingCount="0" stopTime="0.00" timeLoss="9.55" rerouteNo="0" devices="tripinfo_flow_1.6 emissions_flow_1.6" vType="bus" speedFactor="0.86" vaporized="">
        <emissions CO_abs="2232.17" CO2_abs="162208.35" HC_abs="14.02" PMx_abs="2.79" NOx_abs="64.28" fuel_abs="51751.11" electricity_abs="0.00"/>
    </tripinfo>
    <tripinfo id="flow_1.7" depart="4115.00" departLane="A2A3_0" departPos="7.60" departSpeed="0.00" departDelay="0.68" arrival="4191.00" arrivalLane="C0B0_0" arrivalPos="85.60" arrivalSpeed="9.70" duration="76.00" routeLength="661.89" waitingTime="0.00" waitingCount="0" stopTime="0.00" timeLoss="8.89" rerouteNo="0" devices="tripinfo_flow_1.7 emissions_flow_1.7" vType="bus" speedFactor="1.09" vaporized="">
        <emissions CO_abs="2152.91" CO2_abs="159629.09" HC_abs="13.59" PMx_abs="2.67" NOx_abs="62.73" fuel_abs="50928.42" electricity_abs="0.00"/>
    </tripinfo>
    <tripinfo id="flow_1.8" depart="4703.00" departLane="A2A3_0" departPos="7.60" departSpeed="0.00" departDelay="0.92" arrival="4782.00" arrivalLane="C0B0_0" arrivalPos="85.60" arrivalSpeed="9.12" duration="79.00" routeLength="661.89" waitingTime="0.00" waitingCount="0" stopTime="0.00" timeLoss="11.04" rerouteNo="0" devices="tripinfo_flow_1.8 emissions_flow_1.8" vType="bus" speedFactor="1.03" vaporized="">
        <emissions CO_abs="2442.37" CO2_abs="169661.85" HC_abs="15.13" PMx_abs="2.94" NOx_abs="67.04" fuel_abs="54128.96" electricity_abs="0.00"/>
    </tripinfo>
    <tripinfo id="flow_0.3" depart="4891.00" departLane="A4B4_0" departPos="4.60" departSpeed="0.00" departDelay="0.43" arrival="4952.00" arrivalLane="E2D2_0" arrivalPos="85.60" arrivalSpeed="13.81" duration="61.00" routeLength="675.81" waitingTime="0.00" waitingCount="0" stopTime="0.00" timeLoss="10.53" rerouteNo="0" devices="tripinfo_flow_0.3 emissions_flow_0.3" vType="car" speedFactor="1.05" vaporized="">
        <emissions CO_abs="1743.03" CO2_abs="171574.25" HC_abs="12.06" PMx_abs="2.82" NOx_abs="68.31" fuel_abs="54740.47" electricity_abs="0.00"/>
    </tripinfo>
    <tripinfo id="flow_1.9" depart="5290.00" departLane="A2A3_0" departPos="7.60" departSpeed="0.00" departDelay="0.16" arrival="5367.00" arrivalLane="C0B0_0" arrivalPos="85.60" arrivalSpeed="8.92" duration="77.00" routeLength="661.89" waitingTime="0.00" waitingCount="0" stopTime="0.00" timeLoss="9.45" rerouteNo="0" devices="tripinfo_flow_1.9 emissions_flow_1.9" vType="bus" speedFactor="1.12" vaporized="">
        <emissions CO_abs="2233.56" CO2_abs="159823.24" HC_abs="13.96" PMx_abs="2.75" NOx_abs="63.22" fuel_abs="50990.14" electricity_abs="0.00"/>
    </tripinfo>
    <tripinfo id="flow_1.10" depart="5878.00" departLane="A2A3_0" departPos="7.60" departSpeed="0.00" departDelay="0.40" arrival="5955.00" arrivalLane="C0B0_0" arrivalPos="85.60" arrivalSpeed="9.33" duration="77.00" routeLength="661.89" waitingTime="0.00" waitingCount="0" stopTime="0.00" timeLoss="9.34" rerouteNo="0" devices="tripinfo_flow_1.10 emissions_flow_1.10" vType="bus" speedFactor="0.99" vaporized="">
        <emissions CO_abs="2197.63" CO2_abs="155556.87" HC_abs="13.71" PMx_abs="2.73" NOx_abs="62.01" fuel_abs="49628.82" electricity_abs="0.00"/>
    </tripinfo>
    <tripinfo id="flow_1.11" depart="6466.00" departLane="A2A3_0" departPos="7.60" departSpeed="0.00" departDelay="0.64" arrival="6545.00" arrivalLane="C0B0_0" arrivalPos="85.60" arrivalSpeed="9.96" duration="79.00" routeLength="661.89" waitingTime="0.00" waitingCount="0" stopTime="0.00" timeLoss="9.81" rerouteNo="0" devices="tripinfo_flow_1.11 emissions_flow_1.11" vType="bus" speedFactor="0.93" vaporized="">
        <emissions CO_abs="2525.78" CO2_abs="177311.59" HC_abs="15.69" PMx_abs="3.04" NOx_abs="69.87" fuel_abs="56569.63" electricity_abs="0.00"/>
    </tripinfo>
    <tripinfo id="flow_0.4" depart="6521.00" departLane="A4B4_0" departPos="4.60" departSpeed="0.00" departDelay="0.24" arrival="6589.00" arrivalLane="E2D2_0" arrivalPos="85.60" arrivalSpeed="11.58" duration="68.00" routeLength="675.81" waitingTime="0.00" waitingCount="0" stopTime="0.00" timeLoss="10.91" rerouteNo="0" devices="tripinfo_flow_0.4 emissions_flow_0.4" vType="car" speedFactor="0.88" vaporized="">
        <emissions CO_abs="1988.05" CO2_abs="164445.63" HC_abs="13.01" PMx_abs="2.79" NOx_abs="65.36" fuel_abs="52465.44" electricity_abs="0.00"/>
    </tripinfo>
    <tripinfo id="flow_1.12" depart="7054.00" departLane="A2A3_0" departPos="7.60" departSpeed="0.00" departDelay="0.88" arrival="7133.00" arrivalLane="C0B0_0" arrivalPos="85.60" arrivalSpeed="9.71" duration="79.00" routeLength="661.89" waitingTime="0.00" waitingCount="0" stopTime="0.00" timeLoss="10.22" rerouteNo="0" devices="tripinfo_flow_1.12 emissions_flow_1.12" vType="bus" speedFactor="0.94" vaporized="">
        <emissions CO_abs="2433.93" CO2_abs="171020.63" HC_abs="15.13" PMx_abs="2.96" NOx_abs="67.62" fuel_abs="54562.50" electricity_abs="0.00"/>
    </tripinfo>
    <tripinfo id="flow_1.13" depart="7641.00" departLane="A2A3_0" departPos="7.60" departSpeed="0.00" departDelay="0.12" arrival="7719.00" arrivalLane="C0B0_0" arrivalPos="85.60" arrivalSpeed="9.75" duration="78.00" routeLength="661.89" waitingTime="0.00" waitingCount="0" stopTime="0.00" timeLoss="9.77" rerouteNo="0" devices="tripinfo_flow_1.13 emissions_flow_1.13" vType="bus" speedFactor="0.94" vaporized="">
        <emissions CO_abs="2392.32" CO2_abs="170721.33" HC_abs="14.93" PMx_abs="2.90" NOx_abs="67.17" fuel_abs="54467.15" electricity_abs="0.00"/>
    </tripinfo>
    <tripinfo id="flow_0.5" depart="8151.00" departLane="A4B4_0" departPos="4.60" departSpeed="0.00" departDelay="0.05" arrival="8209.00" arrivalLane="E2D2_0" arrivalPos="85.60" arrivalSpeed="13.38" duration="58.00" routeLength="675.81" waitingTime="0.00" waitingCount="0" stopTime="0.00" timeLoss="8.61" rerouteNo="0" devices="tripinfo_flow_0.5 emissions_flow_0.5" vType="car" speedFactor="1.16" vaporized="">
        <emissions CO_abs="1602.43" CO2_abs="163035.35" HC_abs="11.09" PMx_abs="2.59" NOx_abs="64.16" fuel_abs="52016.51" electricity_abs="0.00"/>
    </tripinfo>
    <tripinfo id="flow_1.14" depart="8229.00" departLane="A2A3_0" departPos="7.60" departSpeed="0.00" departDelay="0.36" arrival="8306.00" arrivalLane="C0B0_0" arrivalPos="85.60" arrivalSpeed="8.95" duration="77.00" routeLength="661.89" waitingTime="0.00" waitingCount="0" stopTime="0.00" timeLoss="8.84" rerouteNo="0" devices="tripinfo_flow_1.14 emissions_flow_1.14" vType="bus" speedFactor="1.02" vaporized="">
        <emissions CO_abs="2045.19" CO2_abs="153223.11" HC_abs="12.94" PMx_abs="2.54" NOx_abs="60.17" fuel_abs="48884.69" electricity_abs="0.00"/>
    </tripinfo>
    <tripinfo id="flow_1.15" depart="8817.00" departLane="A2A3_0" departPos="7.60" departSpeed="0.00" departDelay="0.60" arrival="8896.00" arrivalLane="C0B0_0" arrivalPos="85.60" arrivalSpeed="9.83" duration="79.00" routeLength="661.89" waitingTime="0.00" waitingCount="0" stopTime="0.00" timeLoss="10.71" rerouteNo="0" devices="tripinfo_flow_1.15 emissions_flow_1.15" vType="bus" speedFactor="1.01" vaporized="">
        <emissions CO_abs="2424.65" CO2_abs="167900.02" HC_abs="15.00" PMx_abs="2.90" NOx_abs="66.22" fuel_abs="53566.89" electricity_abs="0.00"/>
    </tripinfo>
    <tripinfo id="flow_1.16" depart="9405.00" departLane="A2A3_0" departPos="7.60" departSpeed="0.00" departDelay="0.84" arrival="9484.00" arrivalLane="C0B0_0" arrivalPos="85.60" arrivalSpeed="9.16" duration="79.00" routeLength="661.89" waitingTime="0.00" waitingCount="0" stopTime="0.00" timeLoss="10.95" rerouteNo="0" devices="tripinfo_flow_1.16 emissions_flow_1.16" vType="bus" speedFactor="0.97" vaporized="">
        <emissions CO_abs="2458.17" CO2_abs="169247.52" HC_abs="15.21" PMx_abs="3.00" NOx_abs="67.38" fuel_abs="53996.61" electricity_abs="0.00"/>
    </tripinfo>
    <tripinfo id="flow_0.6" depart="9782.00" departLane="A4B4_0" departPos="4.60" departSpeed="0.00" departDelay="0.86" arrival="9849.00" arrivalLane="E2D2_0" arrivalPos="85.60" arrivalSpeed="12.35" duration="67.00" routeLength="675.81" waitingTime="0.00" waitingCount="0" stopTime="0.00" timeLoss="11.25" rerouteNo="0" devices="tripinfo_flow_0.6 emissions_flow_0.6" vType="car" speedFactor="0.89" vaporized="">
        <emissions CO_abs="1949.43" CO2_abs="165498.92" HC_abs="12.90" PMx_abs="2.78" NOx_abs="65.72" fuel_abs="52801.60" electricity_abs="0.00"/>
    </tripinfo>
    <tripinfo id="flow_1.17" depart="9992.00" departLane="A2A3_0" departPos="7.60" departSpeed="0.00" departDelay="0.08" arrival="10072.00" arrivalLane="C0B0_0" arrivalPos="85.60" arrivalSpeed="9.95" duration="80.00" routeLength="661.89" waitingTime="0.00" waitingCount="0" stopTime="0.00" timeLoss="10.98" rerouteNo="0" devices="tripinfo_flow_1.17 emissions_flow_1.17" vType="bus" speedFactor="0.83" vaporized="">
        <emissions CO_abs="2477.66" CO2_abs="171996.60" HC_abs="15.32" PMx_abs="2.90" NOx_abs="67.15" fuel_abs="54874.06" electricity_abs="0.00"/>
    </tripinfo>
    <tripinfo id="flow_1.18" depart="10580.00" departLane="A2A3_0" departPos="7.60" departSpeed="0.00" departDelay="0.32" arrival="10660.00" arrivalLane="C0B0_0" arrivalPos="85.60" arrivalSpeed="9.46" duration="80.00" routeLength="661.89" waitingTime="0.00" waitingCount="0" stopTime="0.00" timeLoss="11.11" rerouteNo="0" devices="tripinfo_flow_1.18 emissions_flow_1.18" vType="bus" speedFactor="0.87" vaporized="">
        <emissions CO_abs="2413.94" CO2_abs="165673.70" HC_abs="14.90" PMx_abs="2.88" NOx_abs="65.45" fuel_abs="52856.54" electricity_abs="0.00"/>
    </tripinfo>
    <tripinfo id="flow_1.19" depart="11168.00" departLane="A2A3_0" departPos="7.60" departSpeed="0.00" departDelay="0.56" arrival="11245.00" arrivalLane="C0B0_0" arrivalPos="85.60" arrivalSpeed="9.27" duration="77.00" routeLength="661.89" waitingTime="0.00" waitingCount="0" stopTime="0.00" timeLoss="8.87" rerouteNo="0" devices="tripinfo_flow_1.19 emissions_flow_1.19" vType="bus" speedFactor="0.92" vaporized="">
        <emissions CO_abs="2187.34" CO2_abs="162432.63" HC_abs="13.79" PMx_abs="2.66" NOx_abs="63.30" fuel_abs="51823.02" electricity_abs="0.00"/>
    </tripinfo>
    <tripinfo id="flow_0.7" depart="11412.00" departLane="A4B4_0" departPos="4.60" departSpeed="0.00" departDelay="0.67" arrival="11475.00" arrivalLane="E2D2_0" arrivalPos="85.60" arrivalSpeed="12.98" duration="63.00" routeLength="675.81" waitingTime="0.00" waitingCount="0" stopTime="0.00" timeLoss="9.81" rerouteNo="0" devices="tripinfo_flow_0.7 emissions_flow_0.7" vType="car" speedFactor="0.95" vaporized="">
        <emissions CO_abs="1762.45" CO2_abs="167730.62" HC_abs="11.94" PMx_abs="2.68" NOx_abs="65.76" fuel_abs="53514.33" electricity_abs="0.00"/>
    </tripinfo>
    <tripinfo id="flow_1.20" depart="11756.00" departLane="A2A3_0" departPos="7.60" departSpeed="0.00" departDelay="0.80" arrival="11833.00" arrivalLane="C0B0_0" arrivalPos="85.60" arrivalSpeed="9.35" duration="77.00" routeLength="661.89" waitingTime="0.00" waitingCount="0" stopTime="0.00" timeLoss="8.98" rerouteNo="0" devices="tripinfo_flow_1.20 emissions_flow_1.20" vType="bus" speedFactor="1.13" vaporized="">
        <emissions CO_abs="2206.13" CO2_abs="161532.85" HC_abs="13.89" PMx_abs="2.76" NOx_abs="63.93" fuel_abs="51535.64" electricity_abs="0.00"/>
    </tripinfo>
    <tripinfo id="flow_1.21" depart="12343.00" departLane="A2A3_0" departPos="7.60" departSpeed="0.00" departDelay="0.04" arrival="12422.00" arrivalLane="C0B0_0" arrivalPos="85.60" arrivalSpeed="9.92" duration="79.00" routeLength="661.89" waitingTime="0.00" waitingCount="0" stopTime="0.00" timeLoss="10.37" rerouteNo="0" devices="tripinfo_flow_1.21 emissions_flow_1.21" vType="bus" speedFactor="0.93" vaporized="">
        <emissions CO_abs="2384.22" CO2_abs="167842.88" HC_abs="14.80" PMx_abs="2.82" NOx_abs="65.61" fuel_abs="53548.88" electricity_abs="0.00"/>
    </tripinfo>
    <tripinfo id="flow_1.22" depart="12931.00" departLane="A2A3_0" departPos="7.60" departSpeed="0.00" departDelay="0.28" arrival="13007.00" arrivalLane="C0B0_0" arrivalPos="85.60" arrivalSpeed="9.23" duration="76.00" routeLength="661.89" waitingTime="0.00" waitingCount="0" stopTime="0.00" timeLoss="8.99" rerouteNo="0" devices="tripinfo_flow_1.22 emissions_flow_1.22" vType="bus" speedFactor="1.18" vaporized="">
        <emissions CO_abs="2284.04" CO2_abs="169896.12" HC_abs="14.41" PMx_abs="2.79" NOx_abs="66.33" fuel_abs="54204.17" electricity_abs="0.00"/>
    </tripinfo>
    <tripinfo id="flow_0.8" depart="13042.00" departLane="A4B4_0" departPos="4.60" departSpeed="0.00" departDelay="0.48" arrival="13101.00" arrivalLane="E2D2_0" arrivalPos="85.60" arrivalSpeed="12.80" duration="59.00" routeLength="675.81" waitingTime="0.00" waitingCount="0" stopTime="0.00" timeLoss="9.86" rerouteNo="0" devices="tripinfo_flow_0.8 emissions_flow_0.8" vType="car" speedFactor="1.15" vaporized="">
        <emissions CO_abs="1816.84" CO2_abs="165964.63" HC_abs="12.23" PMx_abs="2.85" NOx_abs="66.48" fuel_abs="52950.45" electricity_abs="0.00"/>
    </tripinfo>
    <tripinfo id="flow_1.23" depart="13519.00" departLane="A2A3_0" departPos="7.60" departSpeed="0.00" departDelay="0.52" arrival="13597.00" arrivalLane="C0B0_0" arrivalPos="85.60" arrivalSpeed="9.98" duration="78.00" routeLength="661.89" waitingTime="0.00" waitingCount="0" stopTime="0.00" timeLoss="10.00" rerouteNo="0" devices="tripinfo_flow_1.23 emissions_flow_1.23" vType="bus" speedFactor="1.01" vaporized="">
        <emissions CO_abs="2271.32" CO2_abs="164099.20" HC_abs="14.22" PMx_abs="2.76" NOx_abs="64.49" fuel_abs="52354.48" electricity_abs="0.00"/>
    </tripinfo>
    <tripinfo id="flow_1.24" depart="14107.00" departLane="A2A3_0" departPos="7.60" departSpeed="0.00" departDelay="0.76" arrival="14183.00" arrivalLane="C0B0_0" arrivalPos="85.60" arrivalSpeed="9.52" duration="76.00" routeLength="661.89" waitingTime="0.00" waitingCount="0" stopTime="0.00" timeLoss="8.72" rerouteNo="0" devices="tripinfo_flow_1.24 emissions_flow_1.24" vType="bus" speedFactor="1.17" vaporized="">
        <emissions CO_abs="2199.21" CO2_abs="162276.67" HC_abs="13.89" PMx_abs="2.79" NOx_abs="64.48" fuel_abs="51772.91" electricity_abs="0.00"/>
    </tripinfo>
    <tripinfo id="flow_0.9" depart="14672.00" departLane="A4B4_0" departPos="4.60" departSpeed="0.00" departDelay="0.29" arrival="14734.00" arrivalLane="E2D2_0" arrivalPos="85.60" arrivalSpeed="13.15" duration="62.00" routeLength="675.81" waitingTime="0.00" waitingCount="0" stopTime="0.00" timeLoss="11.36" rerouteNo="0" devices="tripinfo_flow_0.9 emissions_flow_0.9" vType="car" speedFactor="0.99" vaporized="">
        <emissions CO_abs="1993.37" CO2_abs="173506.87" HC_abs="13.15" PMx_abs="3.00" NOx_abs="69.41" fuel_abs="55356.66" electricity_abs="0.00"/>
    </tripinfo>
    <tripinfo id="flow_1.25" depart="14694.00" departLane="A2A3_0" departPos="7.60" departSpeed="0.00" departDelay="0.00" arrival="14772.00" arrivalLane="C0B0_0" arrivalPos="85.60" arrivalSpeed="9.68" duration="78.00" routeLength="661.89" waitingTime="0.00" waitingCount="0" stopTime="0.00" timeLoss="9.56" rerouteNo="0" devices="tripinfo_flow_1.25 emissions_flow_1.25" vType="bus" speedFactor="1.02" vaporized="">
        <emissions CO_abs="2329.14" CO2_abs="165636.10" HC_abs="14.55" PMx_abs="2.91" NOx_abs="66.00" fuel_abs="52844.53" electricity_abs="0.00"/>
    </tripinfo>
    <tripinfo id="flow_1.26" depart="15282.00" departLane="A2A3_0" departPos="7.60" departSpeed="0.00" departDelay="0.24" arrival="15360.00" arrivalLane="C0B0_0" arrivalPos="85.60" arrivalSpeed="9.86" duration="78.00" routeLength="661.89" waitingTime="0.00" waitingCount="0" stopTime="0.00" timeLoss="9.54" rerouteNo="0" devices="tripinfo_flow_1.26 emissions_flow_1.26" vType="bus" speedFactor="0.97" vaporized="">
        <emissions CO_abs="2301.95" CO2_abs="168987.91" HC_abs="14.48" PMx_abs="2.84" NOx_abs="66.44" fuel_abs="53914.24" electricity_abs="0.00"/>
    </tripinfo>
    <tripinfo id="flow_1.27" depart="15870.00" departLane="A2A3_0" departPos="7.60" departSpeed="0.00" departDelay="0.48" arrival="15946.00" arrivalLane="C0B0_0" arrivalPos="85.60" arrivalSpeed="9.81" duration="76.00" routeLength="661.89" waitingTime="0.00" waitingCount="0" stopTime="0.00" timeLoss="8.82" rerouteNo="0" devices="tripinfo_flow_1.27 emissions_flow_1.27" vType="bus" speedFactor="1.18" vaporized="">
        <emissions CO_abs="2220.51" CO2_abs="163736.10" HC_abs="14.01" PMx_abs="2.80" NOx_abs="64.94" fuel_abs="52238.56" electricity_abs="0.00"/>
    </tripinfo>
    <tripinfo id="flow_0.10" depart="16302.00" departLane="A4B4_0" departPos="4.60" departSpeed="0.00" departDelay="0.10" arrival="16361.00" arrivalLane="E2D2_0" arrivalPos="85.60" arrivalSpeed="12.91" duration="59.00" routeLength="675.81" waitingTime="0.00" waitingCount="0" stopTime="0.00" timeLoss="9.81" rerouteNo="0" devices="tripinfo_flow_0.10 emissions_flow_0.10" vType="car" speedFactor="1.10" vaporized="">
        <emissions CO_abs="1843.26" CO2_abs="170392.12" HC_abs="12.45" PMx_abs="2.92" NOx_abs="68.52" fuel_abs="54362.96" electricity_abs="0.00"/>
    </tripinfo>
    <tripinfo id="flow_1.28" depart="16458.00" departLane="A2A3_0" departPos="7.60" departSpeed="0.00" departDelay="0.72" arrival="16537.00" arrivalLane="C0B0_0" arrivalPos="85.60" arrivalSpeed="9.15" duration="79.00" routeLength="661.89" waitingTime="0.00" waitingCount="0" stopTime="0.00" timeLoss="10.58" rerouteNo="0" devices="tripinfo_flow_1.28 emissions_flow_1.28" vType="bus" speedFactor="0.90" vaporized="">
        <emissions CO_abs="2464.99" CO2_abs="176000.43" HC_abs="15.38" PMx_abs="2.98" NOx_abs="69.16" fuel_abs="56151.43" electricity_abs="0.00"/>
    </tripinfo>
    <tripinfo id="flow_1.29" depart="17046.00" departLane="A2A3_0" departPos="7.60" departSpeed="0.00" departDelay="0.96" arrival="17123.00" arrivalLane="C0B0_0" arrivalPos="85.60" arrivalSpeed="9.72" duration="77.00" routeLength="661.89" waitingTime="0.00" waitingCount="0" stopTime="0.00" timeLoss="8.69" rerouteNo="0" devices="tripinfo_flow_1.29 emissions_flow_1.29" vType="bus" speedFactor="1.03" vaporized="">
        <emissions CO_abs="2182.72" CO2_abs="161826.72" HC_abs="13.80" PMx_abs="2.77" NOx_abs="64.26" fuel_abs="51629.38" electricity_abs="0.00"/>
    </tripinfo>
    <tripinfo id="flow_1.30" depart="17633.00" departLane="A2A3_0" departPos="7.60" departSpeed="0.00" departDelay="0.20" arrival="17712.00" arrivalLane="C0B0_0" arrivalPos="85.60" arrivalSpeed="9.78" duration="79.00" routeLength="661.89" waitingTime="0.00" waitingCount="0" stopTime="0.00" timeLoss="10.68" rerouteNo="0" devices="tripinfo_flow_1.30 emissions_flow_1.30" vType="bus" speedFactor="0.96" vaporized="">
        <emissions CO_abs="2426.82" CO2_abs="173261.94" HC_abs="15.14" PMx_abs="2.94" NOx_abs="68.12" fuel_abs="55277.72" electricity_abs="0.00"/>
    </tripinfo>
    <tripinfo id="flow_0.11" depart="17933.00" departLane="A4B4_0" departPos="4.60" departSpeed="0.00" departDelay="0.91" arrival="17992.00" arrivalLane="E2D2_0" arrivalPos="85.60" arrivalSpeed="13.61" duration="59.00" routeLength="675.81" waitingTime="0.00" waitingCount="0" stopTime="0.00" timeLoss="9.13" rerouteNo="0" devices="tripinfo_flow_0.11 emissions_flow_0.11" vType="car" speedFactor="1.09" vaporized="">
        <emissions CO_abs="1766.17" CO2_abs="173134.72" HC_abs="12.11" PMx_abs="2.84" NOx_abs="68.70" fuel_abs="55238.45" electricity_abs="0.00"/>
    </tripinfo>
    <tripinfo id="flow_1.31" depart="18221.00" departLane="A2A3_0" departPos="7.60" departSpeed="0.00" departDelay="0.44" arrival="18298.00" arrivalLane="C0B0_0" arrivalPos="85.60" arrivalSpeed="9.32" duration="77.00" routeLength="661.89" waitingTime="0.00" waitingCount="0" stopTime="0.00" timeLoss="9.14" rerouteNo="0" devices="tripinfo_flow_1.31 emissions_flow_1.31" vType="bus" speedFactor="1.04" vaporized="">
        <emissions CO_abs="2263.55" CO2_abs="163257.62" HC_abs="14.19" PMx_abs="2.82" NOx_abs="64.80" fuel_abs="52085.82" electricity_abs="0.00"/>
    </tripinfo>
    <tripinfo id="flow_1.32" depart="18809.00" departLane="A2A3_0" departPos="7.60" departSpeed="0.00" departDelay="0.68" arrival="18887.00" arrivalLane="C0B0_0" arrivalPos="85.60" arrivalSpeed="9.92" duration="78.00" routeLength="661.89" waitingTime="0.00" waitingCount="0" stopTime="0.00" timeLoss="9.71" rerouteNo="0" devices="tripinfo_flow_1.32 emissions_flow_1.32" vType="bus" speedFactor="1.04" vaporized="">
        <emissions CO_abs="2298.37" CO2_abs="170647.21" HC_abs="14.50" PMx_abs="2.84" NOx_abs="66.95" fuel_abs="54443.70" electricity_abs="0.00"/>
    </tripinfo>
    <tripinfo id="flow_1.33" depart="19397.00" departLane="A2A3_0" departPos="7.60" departSpeed="0.00" departDelay="0.92" arrival="19473.00" arrivalLane="C0B0_0" arrivalPos="85.60" arrivalSpeed="9.50" duration="76.00" routeLength="661.89" waitingTime="0.00" waitingCount="0" stopTime="0.00" timeLoss="8.88" rerouteNo="0" devices="tripinfo_flow_1.33 emissions_flow_1.33" vType="bus" speedFactor="1.09" vaporized="">
        <emissions CO_abs="2174.51" CO2_abs="160371.51" HC_abs="13.72" PMx_abs="2.75" NOx_abs="63.60" fuel_abs="51165.11" electricity_abs="0.00"/>
    </tripinfo>
    <tripinfo id="flow_0.12" depart="19563.00" departLane="A4B4_0" departPos="4.60" departSpeed="0.00" departDelay="0.72" arrival="19624.00" arrivalLane="E2D2_0" arrivalPos="85.60" arrivalSpeed="13.57" duration="61.00" routeLength="675.81" waitingTime="0.00" waitingCount="0" stopTime="0.00" timeLoss="9.92" rerouteNo="0" devices="tripinfo_flow_0.12 emissions_flow_0.12" vType="car" speedFactor="1.00" vaporized="">
        <emissions CO_abs="2019.67" CO2_abs="177830.82" HC_abs="13.43" PMx_abs="3.12" NOx_abs="71.64" fuel_abs="56736.08" electricity_abs="0.00"/>
    </tripinfo>
    <tripinfo id="flow_1.34" depart="19984.00" departLane="A2A3_0" departPos="7.60" departSpeed="0.00" departDelay="0.16" arrival="20064.00" arrivalLane="C0B0_0" arrivalPos="85.60" arrivalSpeed="9.06" duration="80.00" routeLength="661.89" waitingTime="0.00" waitingCount="0" stopTime="0.00" timeLoss="11.96" rerouteNo="0" devices="tripinfo_flow_1.34 emissions_flow_1.34" vType="bus" speedFactor="0.90" vaporized="">
        <emissions CO_abs="2447.00" CO2_abs="169852.09" HC_abs="15.14" PMx_abs="2.89" NOx_abs="66.66" fuel_abs="54189.76" electricity_abs="0.00"/>
    </tripinfo>
    <tripinfo id="flow_1.35" depart="20572.00" departLane="A2A3_0" departPos="7.60" departSpeed="0.00" departDelay="0.40" arrival="20652.00" arrivalLane="C0B0_0" arrivalPos="85.60" arrivalSpeed="8.79" duration="80.00" routeLength="661.89" waitingTime="0.00" waitingCount="0" stopTime="0.00" timeLoss="10.91" rerouteNo="0" devices="tripinfo_flow_1.35 emissions_flow_1.35" vType="bus" speedFactor="0.88" vaporized="">
        <emissions CO_abs="2302.49" CO2_abs="163782.01" HC_abs="14.35" PMx_abs="2.78" NOx_abs="64.40" fuel_abs="52253.22" electricity_abs="0.00"/>
    </tripinfo>
    <tripinfo id="flow_1.36" depart="21160.00" departLane="A2A3_0" departPos="7.60" departSpeed="0.00" departDelay="0.64" arrival="21240.00" arrivalLane="C0B0_0" arrivalPos="85.60" arrivalSpeed="9.26" duration="80.00" routeLength="661.89" waitingTime="0.00" waitingCount="0" stopTime="0.00" timeLoss="10.60" rerouteNo="0" devices="tripinfo_flow_1.36 emissions_flow_1.36" vType="bus" speedFactor="0.85" vaporized="">
        <emissions CO_abs="2441.37" CO2_abs="170311.42" HC_abs="15.13" PMx_abs="2.90" NOx_abs="66.81" fuel_abs="54336.36" electricity_abs="0.00"/>
    </tripinfo>