<?xml version="1.0" encoding="UTF-8"?>

<!-- generated on 2025-11-11 15:32:40 by Eclipse SUMO sumo Version 1.24.0
<sumoConfiguration xmlns:xsi="http://www.w3.org/2001/XMLSchema-instance" xsi:noNamespaceSchemaLocation="http://sumo.dlr.de/xsd/sumoConfiguration.xsd">

    <input>
        <net-file value="D:\Rafa\TrafficCongestionPoliciesEffect-SimulationAndModulation\automate_flow\core\manhattan.net.xml"/>
        <route-files value="sumo_runs\flows\flows_sim1_day1_policy_bus_subsidy.xml"/>
    </input>

    <output>
        <emission-output value="sumo_runs\raw_xml\emissions_sim1_day1_policy_bus_subsidy.xml"/>
        <tripinfo-output value="sumo_runs\raw_xml\tripinfo_sim1_day1_policy_bus_subsidy.xml"/>
    </output>

    <report>
        <no-warnings value="true"/>
        <duration-log.statistics value="true"/>
    </report>

</sumoConfiguration>
-->

<tripinfos xmlns:xsi="http://www.w3.org/2001/XMLSchema-instance" xsi:noNamespaceSchemaLocation="http://sumo.dlr.de/xsd/tripinfo_file.xsd">
    <tripinfo id="flow_0.0" depart="0.00" departLane="A4B4_0" departPos="4.60" departSpeed="0.00" departDelay="0.00" arrival="59.00" arrivalLane="E2D2_0" arrivalPos="85.60" arrivalSpeed="13.64" duration="59.00" routeLength="675.81" waitingTime="0.00" waitingCount="0" stopTime="0.00" timeLoss="9.71" rerouteNo="0" devices="tripinfo_flow_0.0 emissions_flow_0.0" vType="car" speedFactor="1.06" vaporized="">
        <emissions CO_abs="1854.83" CO2_abs="172724.53" HC_abs="12.38" PMx_abs="2.90" NOx_abs="68.63" fuel_abs="55107.47" electricity_abs="0.00"/>
    </tripinfo>
    <tripinfo id="flow_1.0" depart="0.00" departLane="A2A3_0" departPos="7.60" departSpeed="0.00" departDelay="0.00" arrival="77.00" arrivalLane="C0B0_0" arrivalPos="85.60" arrivalSpeed="9.62" duration="77.00" routeLength="661.89" waitingTime="0.00" waitingCount="0" stopTime="0.00" timeLoss="9.38" rerouteNo="0" devices="tripinfo_flow_1.0 emissions_flow_1.0" vType="bus" speedFactor="0.94" vaporized="">
        <emissions CO_abs="2226.91" CO2_abs="158578.22" HC_abs="13.94" PMx_abs="2.83" NOx_abs="63.64" fuel_abs="50592.66" electricity_abs="0.00"/>
    </tripinfo>
    <tripinfo id="flow_0.1" depart="463.00" departLane="A4B4_0" departPos="4.60" departSpeed="0.00" departDelay="0.97" arrival="523.00" arrivalLane="E2D2_0" arrivalPos="85.60" arrivalSpeed="13.78" duration="60.00" routeLength="675.81" waitingTime="0.00" waitingCount="0" stopTime="0.00" timeLoss="10.38" rerouteNo="0" devices="tripinfo_flow_0.1 emissions_flow_0.1" vType="car" speedFactor="1.01" vaporized="">
        <emissions CO_abs="1903.66" CO2_abs="174620.26" HC_abs="12.81" PMx_abs="3.02" NOx_abs="70.23" fuel_abs="55711.93" electricity_abs="0.00"/>
    </tripinfo>
    <tripinfo id="flow_0.2" depart="925.00" departLane="A4B4_0" departPos="4.60" departSpeed="0.00" departDelay="0.94" arrival="984.00" arrivalLane="E2D2_0" arrivalPos="85.60" arrivalSpeed="13.49" duration="59.00" routeLength="675.81" waitingTime="0.00" waitingCount="0" stopTime="0.00" timeLoss="9.77" rerouteNo="0" devices="tripinfo_flow_0.2 emissions_flow_0.2" vType="car" speedFactor="1.08" vaporized="">
        <emissions CO_abs="1826.64" CO2_abs="170620.52" HC_abs="12.36" PMx_abs="2.94" NOx_abs="68.77" fuel_abs="54435.85" electricity_abs="0.00"/>
    </tripinfo>
    <tripinfo id="flow_0.3" depart="1387.00" departLane="A4B4_0" departPos="4.60" departSpeed="0.00" departDelay="0.91" arrival="1448.00" arrivalLane="E2D2_0" arrivalPos="85.60" arrivalSpeed="13.67" duration="61.00" routeLength="675.81" waitingTime="0.00" waitingCount="0" stopTime="0.00" timeLoss="10.51" rerouteNo="0" devices="tripinfo_flow_0.3 emissions_flow_0.3" vType="car" speedFactor="1.03" vaporized="">
        <emissions CO_abs="1893.84" CO2_abs="178136.53" HC_abs="12.89" PMx_abs="2.98" NOx_abs="71.02" fuel_abs="56834.01" electricity_abs="0.00"/>
    </tripinfo>
    <tripinfo id="flow_0.4" depart="1849.00" departLane="A4B4_0" departPos="4.60" departSpeed="0.00" departDelay="0.88" arrival="1920.00" arrivalLane="E2D2_0" arrivalPos="85.60" arrivalSpeed="10.40" duration="71.00" routeLength="675.81" waitingTime="0.00" waitingCount="0" stopTime="0.00" timeLoss="11.02" rerouteNo="0" devices="tripinfo_flow_0.4 emissions_flow_0.4" vType="car" speedFactor="0.83" vaporized="">
        <emissions CO_abs="1930.30" CO2_abs="156768.11" HC_abs="12.55" PMx_abs="2.62" NOx_abs="61.96" fuel_abs="50015.96" electricity_abs="0.00"/>
    </tripinfo>
    <tripinfo id="flow_0.5" depart="2311.00" departLane="A4B4_0" departPos="4.60" departSpeed="0.00" departDelay="0.85" arrival="2371.00" arrivalLane="E2D2_0" arrivalPos="85.60" arrivalSpeed="13.36" duration="60.00" routeLength="675.81" waitingTime="0.00" waitingCount="0" stopTime="0.00" timeLoss="10.89" rerouteNo="0" devices="tripinfo_flow_0.5 emissions_flow_0.5" vType="car" speedFactor="1.05" vaporized="">
        <emissions CO_abs="1881.64" CO2_abs="170503.68" HC_abs="12.67" PMx_abs="2.94" NOx_abs="68.71" fuel_abs="54398.42" electricity_abs="0.00"/>
    </tripinfo>
    <tripinfo id="flow_0.6" depart="2773.00" departLane="A4B4_0" departPos="4.60" departSpeed="0.00" departDelay="0.82" arrival="2840.00" arrivalLane="E2D2_0" arrivalPos="85.60" arrivalSpeed="11.47" duration="67.00" routeLength="675.81" waitingTime="0.00" waitingCount="0" stopTime="0.00" timeLoss="11.04" rerouteNo="0" devices="tripinfo_flow_0.6 emissions_flow_0.6" vType="car" speedFactor="0.89" vaporized="">
        <emissions CO_abs="1904.53" CO2_abs="161136.63" HC_abs="12.55" PMx_abs="2.68" NOx_abs="63.69" fuel_abs="51409.90" electricity_abs="0.00"/>
    </tripinfo>
    <tripinfo id="flow_0.7" depart="3235.00" departLane="A4B4_0" departPos="4.60" departSpeed="0.00" departDelay="0.79" arrival="3298.00" arrivalLane="E2D2_0" arrivalPos="85.60" arrivalSpeed="12.61" duration="63.00" routeLength="675.81" waitingTime="0.00" waitingCount="0" stopTime="0.00" timeLoss="9.85" rerouteNo="0" devices="tripinfo_flow_0.7 emissions_flow_0.7" vType="car" speedFactor="0.94" vaporized="">
        <emissions CO_abs="1888.13" CO2_abs="172455.89" HC_abs="12.73" PMx_abs="2.88" NOx_abs="68.70" fuel_abs="55021.45" electricity_abs="0.00"/>
    </tripinfo>
    <tripinfo id="flow_0.8" depart="3697.00" departLane="A4B4_0" departPos="4.60" departSpeed="0.00" departDelay="0.76" arrival="3765.00" arrivalLane="E2D2_0" arrivalPos="85.60" arrivalSpeed="10.80" duration="68.00" routeLength="675.81" waitingTime="0.00" waitingCount="0" stopTime="0.00" timeLoss="9.57" rerouteNo="0" devices="tripinfo_flow_0.8 emissions_flow_0.8" vType="car" speedFactor="0.86" vaporized="">
        <emissions CO_abs="1961.23" CO2_abs="160480.77" HC_abs="12.82" PMx_abs="2.76" NOx_abs="64.08" fuel_abs="51200.35" electricity_abs="0.00"/>
    </tripinfo>
    <tripinfo id="flow_0.9" depart="4159.00" departLane="A4B4_0" departPos="4.60" departSpeed="0.00" departDelay="0.73" arrival="4219.00" arrivalLane="E2D2_0" arrivalPos="85.60" arrivalSpeed="13.24" duration="60.00" routeLength="675.81" waitingTime="0.00" waitingCount="0" stopTime="0.00" timeLoss="9.43" rerouteNo="0" devices="tripinfo_flow_0.9 emissions_flow_0.9" vType="car" speedFactor="1.09" vaporized="">
        <emissions CO_abs="1737.91" CO2_abs="165280.45" HC_abs="11.82" PMx_abs="2.78" NOx_abs="65.98" fuel_abs="52732.36" electricity_abs="0.00"/>
    </tripinfo>
    <tripinfo id="flow_0.10" depart="4621.00" departLane="A4B4_0" departPos="4.60" departSpeed="0.00" departDelay="0.70" arrival="4681.00" arrivalLane="E2D2_0" arrivalPos="85.60" arrivalSpeed="12.67" duration="60.00" routeLength="675.81" waitingTime="0.00" waitingCount="0" stopTime="0.00" timeLoss="10.13" rerouteNo="0" devices="tripinfo_flow_0.10 emissions_flow_0.10" vType="car" speedFactor="1.03" vaporized="">
        <emissions CO_abs="1900.15" CO2_abs="174298.84" HC_abs="12.91" PMx_abs="3.05" NOx_abs="70.67" fuel_abs="55609.16" electricity_abs="0.00"/>
    </tripinfo>
    <tripinfo id="flow_0.11" depart="5083.00" departLane="A4B4_0" departPos="4.60" departSpeed="0.00" departDelay="0.67" arrival="5142.00" arrivalLane="E2D2_0" arrivalPos="85.60" arrivalSpeed="13.61" duration="59.00" routeLength="675.81" waitingTime="0.00" waitingCount="0" stopTime="0.00" timeLoss="9.66" rerouteNo="0" devices="tripinfo_flow_0.11 emissions_flow_0.11" vType="car" speedFactor="1.05" vaporized="">
        <emissions CO_abs="1735.99" CO2_abs="171546.90" HC_abs="11.87" PMx_abs="2.76" NOx_abs="67.63" fuel_abs="54732.04" electricity_abs="0.00"/>
    </tripinfo>
    <tripinfo id="flow_0.12" depart="5545.00" departLane="A4B4_0" departPos="4.60" departSpeed="0.00" departDelay="0.64" arrival="5605.00" arrivalLane="E2D2_0" arrivalPos="85.60" arrivalSpeed="13.88" duration="60.00" routeLength="675.81" waitingTime="0.00" waitingCount="0" stopTime="0.00" timeLoss="10.22" rerouteNo="0" devices="tripinfo_flow_0.12 emissions_flow_0.12" vType="car" speedFactor="1.12" vaporized="">
        <emissions CO_abs="1845.41" CO2_abs="171623.24" HC_abs="12.48" PMx_abs="2.91" NOx_abs="68.52" fuel_abs="54755.93" electricity_abs="0.00"/>
    </tripinfo>
    <tripinfo id="flow_0.13" depart="6007.00" departLane="A4B4_0" departPos="4.60" departSpeed="0.00" departDelay="0.61" arrival="6068.00" arrivalLane="E2D2_0" arrivalPos="85.60" arrivalSpeed="13.12" duration="61.00" routeLength="675.81" waitingTime="0.00" waitingCount="0" stopTime="0.00" timeLoss="10.00" rerouteNo="0" devices="tripinfo_flow_0.13 emissions_flow_0.13" vType="car" speedFactor="0.99" vaporized="">
        <emissions CO_abs="1810.66" CO2_abs="168998.10" HC_abs="12.25" PMx_abs="2.84" NOx_abs="67.37" fuel_abs="53918.38" electricity_abs="0.00"/>
    </tripinfo>
    <tripinfo id="flow_0.14" depart="6469.00" departLane="A4B4_0" departPos="4.60" departSpeed="0.00" departDelay="0.58" arrival="6533.00" arrivalLane="E2D2_0" arrivalPos="85.60" arrivalSpeed="12.77" duration="64.00" routeLength="675.81" waitingTime="0.00" waitingCount="0" stopTime="0.00" timeLoss="10.08" rerouteNo="0" devices="tripinfo_flow_0.14 emissions_flow_0.14" vType="car" speedFactor="0.93" vaporized="">
        <emissions CO_abs="1856.34" CO2_abs="165223.83" HC_abs="12.36" PMx_abs="2.75" NOx_abs="65.47" fuel_abs="52714.10" electricity_abs="0.00"/>
    </tripinfo>
    <tripinfo id="flow_1.1" depart="6647.00" departLane="A2A3_0" departPos="7.60" departSpeed="0.00" departDelay="0.85" arrival="6726.00" arrivalLane="C0B0_0" arrivalPos="85.60" arrivalSpeed="9.00" duration="79.00" routeLength="661.89" waitingTime="0.00" waitingCount="0" stopTime="0.00" timeLoss="10.47" rerouteNo="0" devices="tripinfo_flow_1.1 emissions_flow_1.1" vType="bus" speedFactor="0.88" vaporized="">
        <emissions CO_abs="2302.53" CO2_abs="161166.04" HC_abs="14.30" PMx_abs="2.79" NOx_abs="63.71" fuel_abs="51418.48" electricity_abs="0.00"/>
    </tripinfo>
    <tripinfo id="flow_0.15" depart="6931.00" departLane="A4B4_0" departPos="4.60" departSpeed="0.00" departDelay="0.55" arrival="6995.00" arrivalLane="E2D2_0" arrivalPos="85.60" arrivalSpeed="12.81" duration="64.00" routeLength="675.81" waitingTime="0.00" waitingCount="0" stopTime="0.00" timeLoss="10.92" rerouteNo="0" devices="tripinfo_flow_0.15 emissions_flow_0.15" vType="car" speedFactor="0.94" vaporized="">
        <emissions CO_abs="1861.12" CO2_abs="166541.42" HC_abs="12.45" PMx_abs="2.80" NOx_abs="66.31" fuel_abs="53134.40" electricity_abs="0.00"/>
    </tripinfo>
    <tripinfo id="flow_0.16" depart="7393.00" departLane="A4B4_0" departPos="4.60" departSpeed="0.00" departDelay="0.52" arrival="7457.00" arrivalLane="E2D2_0" arrivalPos="85.60" arrivalSpeed="12.24" duration="64.00" routeLength="675.81" waitingTime="0.00" waitingCount="0" stopTime="0.00" timeLoss="10.44" rerouteNo="0" devices="tripinfo_flow_0.16 emissions_flow_0.16" vType="car" speedFactor="0.94" vaporized="">
        <emissions CO_abs="1893.06" CO2_abs="170476.50" HC_abs="12.69" PMx_abs="2.80" NOx_abs="67.39" fuel_abs="54390.01" electricity_abs="0.00"/>
    </tripinfo>
    <tripinfo id="flow_0.17" depart="7855.00" departLane="A4B4_0" departPos="4.60" departSpeed="0.00" departDelay="0.49" arrival="7914.00" arrivalLane="E2D2_0" arrivalPos="85.60" arrivalSpeed="13.08" duration="59.00" routeLength="675.81" waitingTime="0.00" waitingCount="0" stopTime="0.00" timeLoss="9.76" rerouteNo="0" devices="tripinfo_flow_0.17 emissions_flow_0.17" vType="car" speedFactor="1.16" vaporized="">
        <emissions CO_abs="1679.22" CO2_abs="159823.25" HC_abs="11.41" PMx_abs="2.66" NOx_abs="63.46" fuel_abs="50991.35" electricity_abs="0.00"/>
    </tripinfo>
    <tripinfo id="flow_0.18" depart="8317.00" departLane="A4B4_0" departPos="4.60" departSpeed="0.00" departDelay="0.46" arrival="8376.00" arrivalLane="E2D2_0" arrivalPos="85.60" arrivalSpeed="13.69" duration="59.00" routeLength="675.81" waitingTime="0.00" waitingCount="0" stopTime="0.00" timeLoss="9.63" rerouteNo="0" devices="tripinfo_flow_0.18 emissions_flow_0.18" vType="car" speedFactor="1.02" vaporized="">
        <emissions CO_abs="1949.14" CO2_abs="176248.47" HC_abs="13.11" PMx_abs="3.09" NOx_abs="71.32" fuel_abs="56231.21" electricity_abs="0.00"/>
    </tripinfo>
    <tripinfo id="flow_0.19" depart="8779.00" departLane="A4B4_0" departPos="4.60" departSpeed="0.00" departDelay="0.43" arrival="8839.00" arrivalLane="E2D2_0" arrivalPos="85.60" arrivalSpeed="12.86" duration="60.00" routeLength="675.81" waitingTime="0.00" waitingCount="0" stopTime="0.00" timeLoss="10.14" rerouteNo="0" devices="tripinfo_flow_0.19 emissions_flow_0.19" vType="car" speedFactor="1.01" vaporized="">
        <emissions CO_abs="1857.57" CO2_abs="167538.20" HC_abs="12.44" PMx_abs="2.92" NOx_abs="67.49" fuel_abs="53452.36" electricity_abs="0.00"/>
    </tripinfo>
    <tripinfo id="flow_0.20" depart="9241.00" departLane="A4B4_0" departPos="4.60" departSpeed="0.00" departDelay="0.40" arrival="9302.00" arrivalLane="E2D2_0" arrivalPos="85.60" arrivalSpeed="12.41" duration="61.00" routeLength="675.81" waitingTime="0.00" waitingCount="0" stopTime="0.00" timeLoss="10.07" rerouteNo="0" devices="tripinfo_flow_0.20 emissions_flow_0.20" vType="car" speedFactor="0.97" vaporized="">
        <emissions CO_abs="1865.78" CO2_abs="166713.30" HC_abs="12.49" PMx_abs="2.89" NOx_abs="67.06" fuel_abs="53189.09" electricity_abs="0.00"/>
    </tripinfo>
    <tripinfo id="flow_0.21" depart="9703.00" departLane="A4B4_0" departPos="4.60" departSpeed="0.00" departDelay="0.37" arrival="9768.00" arrivalLane="E2D2_0" arrivalPos="85.60" arrivalSpeed="12.32" duration="65.00" routeLength="675.81" waitingTime="0.00" waitingCount="0" stopTime="0.00" timeLoss="9.08" rerouteNo="0" devices="tripinfo_flow_0.21 emissions_flow_0.21" vType="car" speedFactor="0.89" vaporized="">
        <emissions CO_abs="1985.62" CO2_abs="171120.78" HC_abs="13.21" PMx_abs="2.92" NOx_abs="68.55" fuel_abs="54595.10" electricity_abs="0.00"/>
    </tripinfo>
    <tripinfo id="flow_0.22" depart="10165.00" departLane="A4B4_0" departPos="4.60" departSpeed="0.00" departDelay="0.34" arrival="10236.00" arrivalLane="E2D2_0" arrivalPos="85.60" arrivalSpeed="11.10" duration="71.00" routeLength="675.81" waitingTime="0.00" waitingCount="0" stopTime="0.00" timeLoss="9.49" rerouteNo="0" devices="tripinfo_flow_0.22 emissions_flow_0.22" vType="car" speedFactor="0.83" vaporized="">
        <emissions CO_abs="1943.85" CO2_abs="164249.73" HC_abs="12.78" PMx_abs="2.62" NOx_abs="64.10" fuel_abs="52403.25" electricity_abs="0.00"/>
    </tripinfo>
    <tripinfo id="flow_0.23" depart="10627.00" departLane="A4B4_0" departPos="4.60" departSpeed="0.00" departDelay="0.31" arrival="10694.00" arrivalLane="E2D2_0" arrivalPos="85.60" arrivalSpeed="11.72" duration="67.00" routeLength="675.81" waitingTime="0.00" waitingCount="0" stopTime="0.00" timeLoss="9.99" rerouteNo="0" devices="tripinfo_flow_0.23 emissions_flow_0.23" vType="car" speedFactor="0.87" vaporized="">
        <emissions CO_abs="1907.97" CO2_abs="164631.21" HC_abs="12.68" PMx_abs="2.76" NOx_abs="65.54" fuel_abs="52524.74" electricity_abs="0.00"/>
    </tripinfo>
    <tripinfo id="flow_0.24" depart="11089.00" departLane="A4B4_0" departPos="4.60" departSpeed="0.00" departDelay="0.28" arrival="11154.00" arrivalLane="E2D2_0" arrivalPos="85.60" arrivalSpeed="12.34" duration="65.00" routeLength="675.81" waitingTime="0.00" waitingCount="0" stopTime="0.00" timeLoss="10.21" rerouteNo="0" devices="tripinfo_flow_0.24 emissions_flow_0.24" vType="car" speedFactor="0.92" vaporized="">
        <emissions CO_abs="1952.62" CO2_abs="173224.39" HC_abs="13.08" PMx_abs="2.91" NOx_abs="69.04" fuel_abs="55266.48" electricity_abs="0.00"/>
    </tripinfo>
    <tripinfo id="flow_0.25" depart="11551.00" departLane="A4B4_0" departPos="4.60" departSpeed="0.00" departDelay="0.25" arrival="11614.00" arrivalLane="E2D2_0" arrivalPos="85.60" arrivalSpeed="12.90" duration="63.00" routeLength="675.81" waitingTime="0.00" waitingCount="0" stopTime="0.00" timeLoss="9.89" rerouteNo="0" devices="tripinfo_flow_0.25 emissions_flow_0.25" vType="car" speedFactor="0.95" vaporized="">
        <emissions CO_abs="1808.15" CO2_abs="171566.48" HC_abs="12.26" PMx_abs="2.77" NOx_abs="67.56" fuel_abs="54738.06" electricity_abs="0.00"/>
    </tripinfo>
    <tripinfo id="flow_0.26" depart="12013.00" departLane="A4B4_0" departPos="4.60" departSpeed="0.00" departDelay="0.22" arrival="12072.00" arrivalLane="E2D2_0" arrivalPos="85.60" arrivalSpeed="13.89" duration="59.00" routeLength="675.81" waitingTime="0.00" waitingCount="0" stopTime="0.00" timeLoss="9.48" rerouteNo="0" devices="tripinfo_flow_0.26 emissions_flow_0.26" vType="car" speedFactor="1.13" vaporized="">
        <emissions CO_abs="1814.49" CO2_abs="169205.69" HC_abs="12.27" PMx_abs="2.87" NOx_abs="67.62" fuel_abs="53984.61" electricity_abs="0.00"/>
    </tripinfo>
    <tripinfo id="flow_0.27" depart="12475.00" departLane="A4B4_0" departPos="4.60" departSpeed="0.00" departDelay="0.19" arrival="12539.00" arrivalLane="E2D2_0" arrivalPos="85.60" arrivalSpeed="12.49" duration="64.00" routeLength="675.81" waitingTime="0.00" waitingCount="0" stopTime="0.00" timeLoss="10.19" rerouteNo="0" devices="tripinfo_flow_0.27 emissions_flow_0.27" vType="car" speedFactor="0.93" vaporized="">
        <emissions CO_abs="1891.77" CO2_abs="166173.00" HC_abs="12.69" PMx_abs="2.89" NOx_abs="67.05" fuel_abs="53016.52" electricity_abs="0.00"/>
    </tripinfo>
    <tripinfo id="flow_0.28" depart="12937.00" departLane="A4B4_0" departPos="4.60" departSpeed="0.00" departDelay="0.16" arrival="12996.00" arrivalLane="E2D2_0" arrivalPos="85.60" arrivalSpeed="12.78" duration="59.00" routeLength="675.81" waitingTime="0.00" waitingCount="0" stopTime="0.00" timeLoss="9.29" rerouteNo="0" devices="tripinfo_flow_0.28 emissions_flow_0.28" vType="car" speedFactor="1.18" vaporized="">
        <emissions CO_abs="1762.77" CO2_abs="167454.79" HC_abs="11.98" PMx_abs="2.82" NOx_abs="67.00" fuel_abs="53426.02" electricity_abs="0.00"/>
    </tripinfo>
    <tripinfo id="flow_1.2" depart="13293.00" departLane="A2A3_0" departPos="7.60" departSpeed="0.00" departDelay="0.70" arrival="13369.00" arrivalLane="C0B0_0" arrivalPos="85.60" arrivalSpeed="9.40" duration="76.00" routeLength="661.89" waitingTime="0.00" waitingCount="0" stopTime="0.00" timeLoss="9.05" rerouteNo="0" devices="tripinfo_flow_1.2 emissions_flow_1.2" vType="bus" speedFactor="1.15" vaporized="">
        <emissions CO_abs="2041.22" CO2_abs="149552.15" HC_abs="12.86" PMx_abs="2.56" NOx_abs="59.25" fuel_abs="47713.29" electricity_abs="0.00"/>
    </tripinfo>
    <tripinfo id="flow_0.29" depart="13399.00" departLane="A4B4_0" departPos="4.60" departSpeed="0.00" departDelay="0.13" arrival="13458.00" arrivalLane="E2D2_0" arrivalPos="85.60" arrivalSpeed="13.56" duration="59.00" routeLength="675.81" waitingTime="0.00" waitingCount="0" stopTime="0.00" timeLoss="9.20" rerouteNo="0" devices="tripinfo_flow_0.29 emissions_flow_0.29" vType="car" speedFactor="1.01" vaporized="">
        <emissions CO_abs="1815.89" CO2_abs="170086.83" HC_abs="12.30" PMx_abs="2.89" NOx_abs="67.98" fuel_abs="54265.77" electricity_abs="0.00"/>
    </tripinfo>
    <tripinfo id="flow_0.30" depart="13861.00" departLane="A4B4_0" departPos="4.60" departSpeed="0.00" departDelay="0.10" arrival="13920.00" arrivalLane="E2D2_0" arrivalPos="85.60" arrivalSpeed="13.23" duration="59.00" routeLength="675.81" waitingTime="0.00" waitingCount="0" stopTime="0.00" timeLoss="9.61" rerouteNo="0" devices="tripinfo_flow_0.30 emissions_flow_0.30" vType="car" speedFactor="1.17" vaporized="">
        <emissions CO_abs="1759.87" CO2_abs="165776.79" HC_abs="11.95" PMx_abs="2.83" NOx_abs="66.48" fuel_abs="52890.61" electricity_abs="0.00"/>
    </tripinfo>
    <tripinfo id="flow_0.31" depart="14323.00" departLane="A4B4_0" departPos="4.60" departSpeed="0.00" departDelay="0.07" arrival="14384.00" arrivalLane="E2D2_0" arrivalPos="85.60" arrivalSpeed="13.67" duration="61.00" routeLength="675.81" waitingTime="0.00" waitingCount="0" stopTime="0.00" timeLoss="10.60" rerouteNo="0" devices="tripinfo_flow_0.31 emissions_flow_0.31" vType="car" speedFactor="0.99" vaporized="">
        <emissions CO_abs="1855.85" CO2_abs="173306.62" HC_abs="12.53" PMx_abs="2.90" NOx_abs="68.73" fuel_abs="55293.18" electricity_abs="0.00"/>
    </tripinfo>
    <tripinfo id="flow_0.32" depart="14785.00" departLane="A4B4_0" departPos="4.60" departSpeed="0.00" departDelay="0.04" arrival="14845.00" arrivalLane="E2D2_0" arrivalPos="85.60" arrivalSpeed="13.18" duration="60.00" routeLength="675.81" waitingTime="0.00" waitingCount="0" stopTime="0.00" timeLoss="10.82" rerouteNo="0" devices="tripinfo_flow_0.32 emissions_flow_0.32" vType="car" speedFactor="1.02" vaporized="">
        <emissions CO_abs="1827.01" CO2_abs="170689.13" HC_abs="12.30" PMx_abs="2.85" NOx_abs="67.76" fuel_abs="54458.05" electricity_abs="0.00"/>
    </tripinfo>
    <tripinfo id="flow_0.33" depart="15247.00" departLane="A4B4_0" departPos="4.60" departSpeed="0.00" departDelay="0.01" arrival="15309.00" arrivalLane="E2D2_0" arrivalPos="85.60" arrivalSpeed="12.42" duration="62.00" routeLength="675.81" waitingTime="0.00" waitingCount="0" stopTime="0.00" timeLoss="10.80" rerouteNo="0" devices="tripinfo_flow_0.33 emissions_flow_0.33" vType="car" speedFactor="0.97" vaporized="">
        <emissions CO_abs="1813.03" CO2_abs="163175.43" HC_abs="12.19" PMx_abs="2.79" NOx_abs="65.41" fuel_abs="52060.42" electricity_abs="0.00"/>
    </tripinfo>
    <tripinfo id="flow_0.34" depart="15710.00" departLane="A4B4_0" departPos="4.60" departSpeed="0.00" departDelay="0.98" arrival="15769.00" arrivalLane="E2D2_0" arrivalPos="85.60" arrivalSpeed="13.43" duration="59.00" routeLength="675.81" waitingTime="0.00" waitingCount="0" stopTime="0.00" timeLoss="9.55" rerouteNo="0" devices="tripinfo_flow_0.34 emissions_flow_0.34" vType="car" speedFactor="1.18" vaporized="">
        <emissions CO_abs="1637.08" CO2_abs="162685.74" HC_abs="11.16" PMx_abs="2.58" NOx_abs="63.52" fuel_abs="51905.10" electricity_abs="0.00"/>
    </tripinfo>
    <tripinfo id="flow_0.35" depart="16172.00" departLane="A4B4_0" departPos="4.60" departSpeed="0.00" departDelay="0.95" arrival="16230.00" arrivalLane="E2D2_0" arrivalPos="85.60" arrivalSpeed="12.74" duration="58.00" routeLength="675.81" waitingTime="0.00" waitingCount="0" stopTime="0.00" timeLoss="8.78" rerouteNo="0" devices="tripinfo_flow_0.35 emissions_flow_0.35" vType="car" speedFactor="1.10" vaporized="">
        <emissions CO_abs="1703.66" CO2_abs="161069.90" HC_abs="11.59" PMx_abs="2.73" NOx_abs="64.60" fuel_abs="51388.87" electricity_abs="0.00"/>
    </tripinfo>
    <tripinfo id="flow_0.36" depart="16634.00" departLane="A4B4_0" departPos="4.60" departSpeed="0.00" departDelay="0.92" arrival="16700.00" arrivalLane="E2D2_0" arrivalPos="85.60" arrivalSpeed="11.66" duration="66.00" routeLength="675.81" waitingTime="0.00" waitingCount="0" stopTime="0.00" timeLoss="10.44" rerouteNo="0" devices="tripinfo_flow_0.36 emissions_flow_0.36" vType="car" speedFactor="0.90" vaporized="">
        <emissions CO_abs="1885.05" CO2_abs="167447.22" HC_abs="12.57" PMx_abs="2.70" NOx_abs="65.63" fuel_abs="53423.60" electricity_abs="0.00"/>
    </tripinfo>
    <tripinfo id="flow_0.37" depart="17096.00" departLane="A4B4_0" departPos="4.60" departSpeed="0.00" departDelay="0.89" arrival="17155.00" arrivalLane="E2D2_0" arrivalPos="85.60" arrivalSpeed="13.25" duration="59.00" routeLength="675.81" waitingTime="0.00" waitingCount="0" stopTime="0.00" timeLoss="9.87" rerouteNo="0" devices="tripinfo_flow_0.37 emissions_flow_0.37" vType="car" speedFactor="1.03" vaporized="">
        <emissions CO_abs="1791.58" CO2_abs="167359.49" HC_abs="12.07" PMx_abs="2.83" NOx_abs="66.75" fuel_abs="53395.64" electricity_abs="0.00"/>
    </tripinfo>
    <tripinfo id="flow_0.38" depart="17558.00" departLane="A4B4_0" departPos="4.60" departSpeed="0.00" departDelay="0.86" arrival="17621.00" arrivalLane="E2D2_0" arrivalPos="85.60" arrivalSpeed="12.56" duration="63.00" routeLength="675.81" waitingTime="0.00" waitingCount="0" stopTime="0.00" timeLoss="10.91" rerouteNo="0" devices="tripinfo_flow_0.38 emissions_flow_0.38" vType="car" speedFactor="0.96" vaporized="">
        <emissions CO_abs="1833.89" CO2_abs="165410.41" HC_abs="12.31" PMx_abs="2.78" NOx_abs="65.96" fuel_abs="52773.57" electricity_abs="0.00"/>
    </tripinfo>
    <tripinfo id="flow_0.39" depart="18020.00" departLane="A4B4_0" departPos="4.60" departSpeed="0.00" departDelay="0.83" arrival="18080.00" arrivalLane="E2D2_0" arrivalPos="85.60" arrivalSpeed="13.20" duration="60.00" routeLength="675.81" waitingTime="0.00" waitingCount="0" stopTime="0.00" timeLoss="10.23" rerouteNo="0" devices="tripinfo_flow_0.39 emissions_flow_0.39" vType="car" speedFactor="1.09" vaporized="">
        <emissions CO_abs="1788.89" CO2_abs="171204.41" HC_abs="12.16" PMx_abs="2.80" NOx_abs="67.65" fuel_abs="54622.61" electricity_abs="0.00"/>
    </tripinfo>
    <tripinfo id="flow_0.40" depart="18482.00" departLane="A4B4_0" departPos="4.60" departSpeed="0.00" departDelay="0.80" arrival="18541.00" arrivalLane="E2D2_0" arrivalPos="85.60" arrivalSpeed="13.70" duration="59.00" routeLength="675.81" waitingTime="0.00" waitingCount="0" stopTime="0.00" timeLoss="9.03" rerouteNo="0" devices="tripinfo_flow_0.40 emissions_flow_0.40" vType="car" speedFactor="1.04" vaporized="">
        <emissions CO_abs="1779.60" CO2_abs="174543.13" HC_abs="12.30" PMx_abs="2.90" NOx_abs="69.67" fuel_abs="55687.64" electricity_abs="0.00"/>
    </tripinfo>
    <tripinfo id="flow_0.41" depart="18944.00" departLane="A4B4_0" departPos="4.60" departSpeed="0.00" departDelay="0.77" arrival="19004.00" arrivalLane="E2D2_0" arrivalPos="85.60" arrivalSpeed="13.63" duration="60.00" routeLength="675.81" waitingTime="0.00" waitingCount="0" stopTime="0.00" timeLoss="10.21" rerouteNo="0" devices="tripinfo_flow_0.41 emissions_flow_0.41" vType="car" speedFactor="1.04" vaporized="">
        <emissions CO_abs="1873.98" CO2_abs="169617.55" HC_abs="12.61" PMx_abs="2.96" NOx_abs="68.52" fuel_abs="54115.67" electricity_abs="0.00"/>
    </tripinfo>
    <tripinfo id="flow_0.42" depart="19406.00" departLane="A4B4_0" departPos="4.60" departSpeed="0.00" departDelay="0.74" arrival="19465.00" arrivalLane="E2D2_0" arrivalPos="85.60" arrivalSpeed="12.73" duration="59.00" routeLength="675.81" waitingTime="0.00" waitingCount="0" stopTime="0.00" timeLoss="9.83" rerouteNo="0" devices="tripinfo_flow_0.42 emissions_flow_0.42" vType="car" speedFactor="1.09" vaporized="">
        <emissions CO_abs="1718.69" CO2_abs="164056.62" HC_abs="11.74" PMx_abs="2.74" NOx_abs="65.42" fuel_abs="52341.91" electricity_abs="0.00"/>
    </tripinfo>
    <tripinfo id="flow_0.43" depart="19868.00" departLane="A4B4_0" departPos="4.60" departSpeed="0.00" departDelay="0.71" arrival="19928.00" arrivalLane="E2D2_0" arrivalPos="85.60" arrivalSpeed="12.89" duration="60.00" routeLength="675.81" waitingTime="0.00" waitingCount="0" stopTime="0.00" timeLoss="9.87" rerouteNo="0" devices="tripinfo_flow_0.43 emissions_flow_0.43" vType="car" speedFactor="1.00" vaporized="">
        <emissions CO_abs="1805.11" CO2_abs="167619.98" HC_abs="12.25" PMx_abs="2.84" NOx_abs="66.94" fuel_abs="53478.67" electricity_abs="0.00"/>
    </tripinfo>
    <tripinfo id="flow_1.3" depart="19939.00" departLane="A2A3_0" departPos="7.60" departSpeed="0.00" departDelay="0.55" arrival="20018.00" arrivalLane="C0B0_0" arrivalPos="85.60" arrivalSpeed="8.72" duration="79.00" routeLength="661.89" waitingTime="0.00" waitingCount="0" stopTime="0.00" timeLoss="10.25" rerouteNo="0" devices="tripinfo_flow_1.3 emissions_flow_1.3" vType="bus" speedFactor="0.90" vaporized="">
        <emissions CO_abs="2368.31" CO2_abs="167236.67" HC_abs="14.72" PMx_abs="2.83" NOx_abs="65.57" fuel_abs="53355.43" electricity_abs="0.00"/>
    </tripinfo>
    <tripinfo id="flow_0.44" depart="20330.00" departLane="A4B4_0" departPos="4.60" departSpeed="0.00" departDelay="0.68" arrival="20397.00" arrivalLane="E2D2_0" arrivalPos="85.60" arrivalSpeed="12.02" duration="67.00" routeLength="675.81" waitingTime="0.00" waitingCount="0" stopTime="0.00" timeLoss="10.25" rerouteNo="0" devices="tripinfo_flow_0.44 emissions_flow_0.44" vType="car" speedFactor="0.88" vaporized="">
        <emissions CO_abs="1865.95" CO2_abs="164949.35" HC_abs="12.42" PMx_abs="2.68" NOx_abs="64.82" fuel_abs="52626.56" electricity_abs="0.00"/>
    </tripinfo>
    <tripinfo id="flow_0.45" depart="20792.00" departLane="A4B4_0" departPos="4.60" departSpeed="0.00" departDelay="0.65" arrival="20861.00" arrivalLane="E2D2_0" arrivalPos="85.60" arrivalSpeed="11.43" duration="69.00" routeLength="675.81" waitingTime="0.00" waitingCount="0" stopTime="0.00" timeLoss="10.05" rerouteNo="0" devices="tripinfo_flow_0.45 emissions_flow_0.45" vType="car" speedFactor="0.85" vaporized="">
        <emissions CO_abs="1936.85" CO2_abs="162137.28" HC_abs="12.70" PMx_abs="2.69" NOx_abs="64.05" fuel_abs="51729.09" electricity_abs="0.00"/>
    </tripinfo>