<?xml version="1.0" encoding="UTF-8"?>

<!-- generated on 2025-11-11 15:33:29 by Eclipse SUMO sumo Version 1.24.0
<sumoConfiguration xmlns:xsi="http://www.w3.org/2001/XMLSchema-instance" xsi:noNamespaceSchemaLocation="http://sumo.dlr.de/xsd/sumoConfiguration.xsd">

    <input>
        <net-file value="D:\Rafa\TrafficCongestionPoliciesEffect-SimulationAndModulation\automate_flow\core\manhattan.net.xml"/>
        <route-files value="sumo_runs\flows\flows_sim1_day6_policy_bus_subsidy.xml"/>
    </input>

    <output>
        <emission-output value="sumo_runs\raw_xml\emissions_sim1_day6_policy_bus_subsidy.xml"/>
        <tripinfo-output value="sumo_runs\raw_xml\tripinfo_sim1_day6_policy_bus_subsidy.xml"/>
    </output>

    <report>
        <no-warnings value="true"/>
        <duration-log.statistics value="true"/>
    </report>

</sumoConfiguration>
-->

<tripinfos xmlns:xsi="http://www.w3.org/2001/XMLSchema-instance" xsi:noNamespaceSchemaLocation="http://sumo.dlr.de/xsd/tripinfo_file.xsd">
    <tripinfo id="flow_0.0" depart="0.00" departLane="A4B4_0" departPos="4.60" departSpeed="0.00" departDelay="0.00" arrival="59.00" arrivalLane="E2D2_0" arrivalPos="85.60" arrivalSpeed="13.64" duration="59.00" routeLength="675.81" waitingTime="0.00" waitingCount="0" stopTime="0.00" timeLoss="9.71" rerouteNo="0" devices="tripinfo_flow_0.0 emissions_flow_0.0" vType="car" speedFactor="1.06" vaporized="">
        <emissions CO_abs="1854.83" CO2_abs="172724.53" HC_abs="12.38" PMx_abs="2.90" NOx_abs="68.63" fuel_abs="55107.47" electricity_abs="0.00"/>
    </tripinfo>
    <tripinfo id="flow_1.0" depart="0.00" departLane="A2A3_0" departPos="7.60" departSpeed="0.00" departDelay="0.00" arrival="77.00" arrivalLane="C0B0_0" arrivalPos="85.60" arrivalSpeed="9.62" duration="77.00" routeLength="661.89" waitingTime="0.00" waitingCount="0" stopTime="0.00" timeLoss="9.38" rerouteNo="0" devices="tripinfo_flow_1.0 emissions_flow_1.0" vType="bus" speedFactor="0.94" vaporized="">
        <emissions CO_abs="2226.91" CO2_abs="158578.22" HC_abs="13.94" PMx_abs="2.83" NOx_abs="63.64" fuel_abs="50592.66" electricity_abs="0.00"/>
    </tripinfo>
    <tripinfo id="flow_1.1" depart="650.00" departLane="A2A3_0" departPos="7.60" departSpeed="0.00" departDelay="0.38" arrival="729.00" arrivalLane="C0B0_0" arrivalPos="85.60" arrivalSpeed="9.93" duration="79.00" routeLength="661.89" waitingTime="0.00" waitingCount="0" stopTime="0.00" timeLoss="10.46" rerouteNo="0" devices="tripinfo_flow_1.1 emissions_flow_1.1" vType="bus" speedFactor="1.01" vaporized="">
        <emissions CO_abs="2293.87" CO2_abs="164517.04" HC_abs="14.34" PMx_abs="2.81" NOx_abs="64.95" fuel_abs="52487.69" electricity_abs="0.00"/>
    </tripinfo>
    <tripinfo id="flow_0.1" depart="1290.00" departLane="A4B4_0" departPos="4.60" departSpeed="0.00" departDelay="0.45" arrival="1349.00" arrivalLane="E2D2_0" arrivalPos="85.60" arrivalSpeed="13.78" duration="59.00" routeLength="675.81" waitingTime="0.00" waitingCount="0" stopTime="0.00" timeLoss="9.80" rerouteNo="0" devices="tripinfo_flow_0.1 emissions_flow_0.1" vType="car" speedFactor="1.08" vaporized="">
        <emissions CO_abs="1826.08" CO2_abs="172774.93" HC_abs="12.44" PMx_abs="2.94" NOx_abs="69.25" fuel_abs="55123.34" electricity_abs="0.00"/>
    </tripinfo>
    <tripinfo id="flow_1.2" depart="1300.00" departLane="A2A3_0" departPos="7.60" departSpeed="0.00" departDelay="0.76" arrival="1378.00" arrivalLane="C0B0_0" arrivalPos="85.60" arrivalSpeed="9.09" duration="78.00" routeLength="661.89" waitingTime="0.00" waitingCount="0" stopTime="0.00" timeLoss="9.75" rerouteNo="0" devices="tripinfo_flow_1.2 emissions_flow_1.2" vType="bus" speedFactor="1.03" vaporized="">
        <emissions CO_abs="2183.90" CO2_abs="158778.25" HC_abs="13.72" PMx_abs="2.73" NOx_abs="62.91" fuel_abs="50656.77" electricity_abs="0.00"/>
    </tripinfo>
    <tripinfo id="flow_1.3" depart="1949.00" departLane="A2A3_0" departPos="7.60" departSpeed="0.00" departDelay="0.14" arrival="2030.00" arrivalLane="C0B0_0" arrivalPos="85.60" arrivalSpeed="8.75" duration="81.00" routeLength="661.89" waitingTime="0.00" waitingCount="0" stopTime="0.00" timeLoss="11.41" rerouteNo="0" devices="tripinfo_flow_1.3 emissions_flow_1.3" vType="bus" speedFactor="0.83" vaporized="">
        <emissions CO_abs="2563.55" CO2_abs="175826.89" HC_abs="15.84" PMx_abs="3.09" NOx_abs="69.78" fuel_abs="56095.73" electricity_abs="0.00"/>
    </tripinfo>
    <tripinfo id="flow_0.2" depart="2580.00" departLane="A4B4_0" departPos="4.60" departSpeed="0.00" departDelay="0.90" arrival="2639.00" arrivalLane="E2D2_0" arrivalPos="85.60" arrivalSpeed="13.49" duration="59.00" routeLength="675.81" waitingTime="0.00" waitingCount="0" stopTime="0.00" timeLoss="9.84" rerouteNo="0" devices="tripinfo_flow_0.2 emissions_flow_0.2" vType="car" speedFactor="1.05" vaporized="">
        <emissions CO_abs="1864.42" CO2_abs="172024.26" HC_abs="12.58" PMx_abs="2.99" NOx_abs="69.47" fuel_abs="54883.65" electricity_abs="0.00"/>
    </tripinfo>
    <tripinfo id="flow_1.4" depart="2599.00" departLane="A2A3_0" departPos="7.60" departSpeed="0.00" departDelay="0.52" arrival="2678.00" arrivalLane="C0B0_0" arrivalPos="85.60" arrivalSpeed="9.78" duration="79.00" routeLength="661.89" waitingTime="0.00" waitingCount="0" stopTime="0.00" timeLoss="10.43" rerouteNo="0" devices="tripinfo_flow_1.4 emissions_flow_1.4" vType="bus" speedFactor="0.89" vaporized="">
        <emissions CO_abs="2515.20" CO2_abs="176106.15" HC_abs="15.60" PMx_abs="2.99" NOx_abs="69.04" fuel_abs="56185.14" electricity_abs="0.00"/>
    </tripinfo>
    <tripinfo id="flow_1.5" depart="3249.00" departLane="A2A3_0" departPos="7.60" departSpeed="0.00" departDelay="0.90" arrival="3326.00" arrivalLane="C0B0_0" arrivalPos="85.60" arrivalSpeed="8.97" duration="77.00" routeLength="661.89" waitingTime="0.00" waitingCount="0" stopTime="0.00" timeLoss="9.26" rerouteNo="0" devices="tripinfo_flow_1.5 emissions_flow_1.5" vType="bus" speedFactor="0.94" vaporized="">
        <emissions CO_abs="2238.33" CO2_abs="163927.64" HC_abs="14.07" PMx_abs="2.74" NOx_abs="64.32" fuel_abs="52299.83" electricity_abs="0.00"/>
    </tripinfo>
    <tripinfo id="flow_0.3" depart="3869.00" departLane="A4B4_0" departPos="4.60" departSpeed="0.00" departDelay="0.35" arrival="3938.00" arrivalLane="E2D2_0" arrivalPos="85.60" arrivalSpeed="11.68" duration="69.00" routeLength="675.81" waitingTime="0.00" waitingCount="0" stopTime="0.00" timeLoss="10.60" rerouteNo="0" devices="tripinfo_flow_0.3 emissions_flow_0.3" vType="car" speedFactor="0.86" vaporized="">
        <emissions CO_abs="1849.79" CO2_abs="163280.97" HC_abs="12.35" PMx_abs="2.59" NOx_abs="63.89" fuel_abs="52094.29" electricity_abs="0.00"/>
    </tripinfo>
    <tripinfo id="flow_1.6" depart="3898.00" departLane="A2A3_0" departPos="7.60" departSpeed="0.00" departDelay="0.28" arrival="3974.00" arrivalLane="C0B0_0" arrivalPos="85.60" arrivalSpeed="9.31" duration="76.00" routeLength="661.89" waitingTime="0.00" waitingCount="0" stopTime="0.00" timeLoss="8.28" rerouteNo="0" devices="tripinfo_flow_1.6 emissions_flow_1.6" vType="bus" speedFactor="1.09" vaporized="">
        <emissions CO_abs="2230.76" CO2_abs="167143.90" HC_abs="14.11" PMx_abs="2.76" NOx_abs="65.49" fuel_abs="53326.05" electricity_abs="0.00"/>
    </tripinfo>
    <tripinfo id="flow_1.7" depart="4548.00" departLane="A2A3_0" departPos="7.60" departSpeed="0.00" departDelay="0.66" arrival="4625.00" arrivalLane="C0B0_0" arrivalPos="85.60" arrivalSpeed="9.62" duration="77.00" routeLength="661.89" waitingTime="0.00" waitingCount="0" stopTime="0.00" timeLoss="8.72" rerouteNo="0" devices="tripinfo_flow_1.7 emissions_flow_1.7" vType="bus" speedFactor="1.03" vaporized="">
        <emissions CO_abs="2061.86" CO2_abs="152452.47" HC_abs="12.99" PMx_abs="2.52" NOx_abs="59.60" fuel_abs="48638.86" electricity_abs="0.00"/>
    </tripinfo>
    <tripinfo id="flow_0.4" depart="5159.00" departLane="A4B4_0" departPos="4.60" departSpeed="0.00" departDelay="0.80" arrival="5219.00" arrivalLane="E2D2_0" arrivalPos="85.60" arrivalSpeed="13.48" duration="60.00" routeLength="675.81" waitingTime="0.00" waitingCount="0" stopTime="0.00" timeLoss="10.18" rerouteNo="0" devices="tripinfo_flow_0.4 emissions_flow_0.4" vType="car" speedFactor="1.05" vaporized="">
        <emissions CO_abs="1906.28" CO2_abs="174021.14" HC_abs="12.81" PMx_abs="2.94" NOx_abs="69.45" fuel_abs="55520.91" electricity_abs="0.00"/>
    </tripinfo>
    <tripinfo id="flow_1.8" depart="5197.00" departLane="A2A3_0" departPos="7.60" departSpeed="0.00" departDelay="0.04" arrival="5275.00" arrivalLane="C0B0_0" arrivalPos="85.60" arrivalSpeed="9.25" duration="78.00" routeLength="661.89" waitingTime="0.00" waitingCount="0" stopTime="0.00" timeLoss="10.82" rerouteNo="0" devices="tripinfo_flow_1.8 emissions_flow_1.8" vType="bus" speedFactor="1.12" vaporized="">
        <emissions CO_abs="2379.53" CO2_abs="168461.60" HC_abs="14.83" PMx_abs="2.91" NOx_abs="66.64" fuel_abs="53746.08" electricity_abs="0.00"/>
    </tripinfo>
    <tripinfo id="flow_1.9" depart="5847.00" departLane="A2A3_0" departPos="7.60" departSpeed="0.00" departDelay="0.42" arrival="5925.00" arrivalLane="C0B0_0" arrivalPos="85.60" arrivalSpeed="9.57" duration="78.00" routeLength="661.89" waitingTime="0.00" waitingCount="0" stopTime="0.00" timeLoss="9.91" rerouteNo="0" devices="tripinfo_flow_1.9 emissions_flow_1.9" vType="bus" speedFactor="0.99" vaporized="">
        <emissions CO_abs="2214.28" CO2_abs="156517.18" HC_abs="13.81" PMx_abs="2.74" NOx_abs="62.19" fuel_abs="49935.26" electricity_abs="0.00"/>
    </tripinfo>
    <tripinfo id="flow_0.5" depart="6448.00" departLane="A4B4_0" departPos="4.60" departSpeed="0.00" departDelay="0.25" arrival="6513.00" arrivalLane="E2D2_0" arrivalPos="85.60" arrivalSpeed="11.83" duration="65.00" routeLength="675.81" waitingTime="0.00" waitingCount="0" stopTime="0.00" timeLoss="11.12" rerouteNo="0" devices="tripinfo_flow_0.5 emissions_flow_0.5" vType="car" speedFactor="0.93" vaporized="">
        <emissions CO_abs="1990.67" CO2_abs="170134.36" HC_abs="13.16" PMx_abs="2.92" NOx_abs="67.98" fuel_abs="54280.48" electricity_abs="0.00"/>
    </tripinfo>
    <tripinfo id="flow_1.10" depart="6497.00" departLane="A2A3_0" departPos="7.60" departSpeed="0.00" departDelay="0.80" arrival="6577.00" arrivalLane="C0B0_0" arrivalPos="85.60" arrivalSpeed="9.53" duration="80.00" routeLength="661.89" waitingTime="0.00" waitingCount="0" stopTime="0.00" timeLoss="11.00" rerouteNo="0" devices="tripinfo_flow_1.10 emissions_flow_1.10" vType="bus" speedFactor="0.88" vaporized="">
        <emissions CO_abs="2366.25" CO2_abs="164898.28" HC_abs="14.71" PMx_abs="2.94" NOx_abs="66.02" fuel_abs="52608.96" electricity_abs="0.00"/>
    </tripinfo>
    <tripinfo id="flow_1.11" depart="7146.00" departLane="A2A3_0" departPos="7.60" departSpeed="0.00" departDelay="0.18" arrival="7224.00" arrivalLane="C0B0_0" arrivalPos="85.60" arrivalSpeed="9.85" duration="78.00" routeLength="661.89" waitingTime="0.00" waitingCount="0" stopTime="0.00" timeLoss="9.70" rerouteNo="0" devices="tripinfo_flow_1.11 emissions_flow_1.11" vType="bus" speedFactor="0.94" vaporized="">
        <emissions CO_abs="2357.04" CO2_abs="170361.82" HC_abs="14.76" PMx_abs="2.87" NOx_abs="66.93" fuel_abs="54352.53" electricity_abs="0.00"/>
    </tripinfo>
    <tripinfo id="flow_0.6" depart="7738.00" departLane="A4B4_0" departPos="4.60" departSpeed="0.00" departDelay="0.70" arrival="7802.00" arrivalLane="E2D2_0" arrivalPos="85.60" arrivalSpeed="11.94" duration="64.00" routeLength="675.81" waitingTime="0.00" waitingCount="0" stopTime="0.00" timeLoss="10.41" rerouteNo="0" devices="tripinfo_flow_0.6 emissions_flow_0.6" vType="car" speedFactor="0.94" vaporized="">
        <emissions CO_abs="1869.06" CO2_abs="165926.36" HC_abs="12.45" PMx_abs="2.74" NOx_abs="65.51" fuel_abs="52938.32" electricity_abs="0.00"/>
    </tripinfo>
    <tripinfo id="flow_1.12" depart="7796.00" departLane="A2A3_0" departPos="7.60" departSpeed="0.00" departDelay="0.56" arrival="7872.00" arrivalLane="C0B0_0" arrivalPos="85.60" arrivalSpeed="9.71" duration="76.00" routeLength="661.89" waitingTime="0.00" waitingCount="0" stopTime="0.00" timeLoss="8.91" rerouteNo="0" devices="tripinfo_flow_1.12 emissions_flow_1.12" vType="bus" speedFactor="1.16" vaporized="">
        <emissions CO_abs="2180.15" CO2_abs="159714.96" HC_abs="13.71" PMx_abs="2.69" NOx_abs="62.82" fuel_abs="50955.77" electricity_abs="0.00"/>
    </tripinfo>
    <tripinfo id="flow_1.13" depart="8446.00" departLane="A2A3_0" departPos="7.60" departSpeed="0.00" departDelay="0.94" arrival="8523.00" arrivalLane="C0B0_0" arrivalPos="85.60" arrivalSpeed="9.75" duration="77.00" routeLength="661.89" waitingTime="0.00" waitingCount="0" stopTime="0.00" timeLoss="8.90" rerouteNo="0" devices="tripinfo_flow_1.13 emissions_flow_1.13" vType="bus" speedFactor="1.02" vaporized="">
        <emissions CO_abs="2292.32" CO2_abs="167894.15" HC_abs="14.39" PMx_abs="2.76" NOx_abs="65.46" fuel_abs="53565.42" electricity_abs="0.00"/>
    </tripinfo>
    <tripinfo id="flow_0.7" depart="9027.00" departLane="A4B4_0" departPos="4.60" departSpeed="0.00" departDelay="0.15" arrival="9087.00" arrivalLane="E2D2_0" arrivalPos="85.60" arrivalSpeed="12.87" duration="60.00" routeLength="675.81" waitingTime="0.00" waitingCount="0" stopTime="0.00" timeLoss="10.12" rerouteNo="0" devices="tripinfo_flow_0.7 emissions_flow_0.7" vType="car" speedFactor="1.01" vaporized="">
        <emissions CO_abs="1962.90" CO2_abs="171196.26" HC_abs="13.01" PMx_abs="3.04" NOx_abs="69.38" fuel_abs="54619.20" electricity_abs="0.00"/>
    </tripinfo>
    <tripinfo id="flow_1.14" depart="9095.00" departLane="A2A3_0" departPos="7.60" departSpeed="0.00" departDelay="0.32" arrival="9174.00" arrivalLane="C0B0_0" arrivalPos="85.60" arrivalSpeed="8.95" duration="79.00" routeLength="661.89" waitingTime="0.00" waitingCount="0" stopTime="0.00" timeLoss="10.71" rerouteNo="0" devices="tripinfo_flow_1.14 emissions_flow_1.14" vType="bus" speedFactor="0.97" vaporized="">
        <emissions CO_abs="2312.66" CO2_abs="163288.36" HC_abs="14.44" PMx_abs="2.91" NOx_abs="65.43" fuel_abs="52095.37" electricity_abs="0.00"/>
    </tripinfo>
    <tripinfo id="flow_1.15" depart="9745.00" departLane="A2A3_0" departPos="7.60" departSpeed="0.00" departDelay="0.70" arrival="9825.00" arrivalLane="C0B0_0" arrivalPos="85.60" arrivalSpeed="9.83" duration="80.00" routeLength="661.89" waitingTime="0.00" waitingCount="0" stopTime="0.00" timeLoss="10.82" rerouteNo="0" devices="tripinfo_flow_1.15 emissions_flow_1.15" vType="bus" speedFactor="0.89" vaporized="">
        <emissions CO_abs="2440.26" CO2_abs="170674.42" HC_abs="15.12" PMx_abs="2.88" NOx_abs="66.73" fuel_abs="54452.23" electricity_abs="0.00"/>
    </tripinfo>
    <tripinfo id="flow_0.8" depart="10317.00" departLane="A4B4_0" departPos="4.60" departSpeed="0.00" departDelay="0.60" arrival="10389.00" arrivalLane="E2D2_0" arrivalPos="85.60" arrivalSpeed="10.87" duration="72.00" routeLength="675.81" waitingTime="0.00" waitingCount="0" stopTime="0.00" timeLoss="10.76" rerouteNo="0" devices="tripinfo_flow_0.8 emissions_flow_0.8" vType="car" speedFactor="0.83" vaporized="">
        <emissions CO_abs="2000.26" CO2_abs="161648.50" HC_abs="12.99" PMx_abs="2.69" NOx_abs="63.79" fuel_abs="51573.02" electricity_abs="0.00"/>
    </tripinfo>
    <tripinfo id="flow_1.16" depart="10394.00" departLane="A2A3_0" departPos="7.60" departSpeed="0.00" departDelay="0.08" arrival="10474.00" arrivalLane="C0B0_0" arrivalPos="85.60" arrivalSpeed="9.16" duration="80.00" routeLength="661.89" waitingTime="0.00" waitingCount="0" stopTime="0.00" timeLoss="10.98" rerouteNo="0" devices="tripinfo_flow_1.16 emissions_flow_1.16" vType="bus" speedFactor="0.87" vaporized="">
        <emissions CO_abs="2415.65" CO2_abs="167616.79" HC_abs="14.96" PMx_abs="2.89" NOx_abs="66.07" fuel_abs="53476.55" electricity_abs="0.00"/>
    </tripinfo>
    <tripinfo id="flow_1.17" depart="11044.00" departLane="A2A3_0" departPos="7.60" departSpeed="0.00" departDelay="0.46" arrival="11123.00" arrivalLane="C0B0_0" arrivalPos="85.60" arrivalSpeed="9.95" duration="79.00" routeLength="661.89" waitingTime="0.00" waitingCount="0" stopTime="0.00" timeLoss="10.91" rerouteNo="0" devices="tripinfo_flow_1.17 emissions_flow_1.17" vType="bus" speedFactor="0.92" vaporized="">
        <emissions CO_abs="2389.79" CO2_abs="169017.93" HC_abs="14.88" PMx_abs="2.90" NOx_abs="66.64" fuel_abs="53923.63" electricity_abs="0.00"/>
    </tripinfo>
    <tripinfo id="flow_0.9" depart="11606.00" departLane="A4B4_0" departPos="4.60" departSpeed="0.00" departDelay="0.05" arrival="11669.00" arrivalLane="E2D2_0" arrivalPos="85.60" arrivalSpeed="12.26" duration="63.00" routeLength="675.81" waitingTime="0.00" waitingCount="0" stopTime="0.00" timeLoss="10.12" rerouteNo="0" devices="tripinfo_flow_0.9 emissions_flow_0.9" vType="car" speedFactor="0.95" vaporized="">
        <emissions CO_abs="1828.66" CO2_abs="162632.71" HC_abs="12.27" PMx_abs="2.81" NOx_abs="65.57" fuel_abs="51887.08" electricity_abs="0.00"/>
    </tripinfo>
    <tripinfo id="flow_1.18" depart="11694.00" departLane="A2A3_0" departPos="7.60" departSpeed="0.00" departDelay="0.84" arrival="11772.00" arrivalLane="C0B0_0" arrivalPos="85.60" arrivalSpeed="9.46" duration="78.00" routeLength="661.89" waitingTime="0.00" waitingCount="0" stopTime="0.00" timeLoss="10.22" rerouteNo="0" devices="tripinfo_flow_1.18 emissions_flow_1.18" vType="bus" speedFactor="1.13" vaporized="">
        <emissions CO_abs="2406.66" CO2_abs="171984.88" HC_abs="15.01" PMx_abs="2.88" NOx_abs="67.27" fuel_abs="54870.39" electricity_abs="0.00"/>
    </tripinfo>
    <tripinfo id="flow_1.19" depart="12343.00" departLane="A2A3_0" departPos="7.60" departSpeed="0.00" departDelay="0.22" arrival="12420.00" arrivalLane="C0B0_0" arrivalPos="85.60" arrivalSpeed="9.27" duration="77.00" routeLength="661.89" waitingTime="0.00" waitingCount="0" stopTime="0.00" timeLoss="8.84" rerouteNo="0" devices="tripinfo_flow_1.19 emissions_flow_1.19" vType="bus" speedFactor="0.93" vaporized="">
        <emissions CO_abs="2168.80" CO2_abs="160177.29" HC_abs="13.68" PMx_abs="2.71" NOx_abs="63.25" fuel_abs="51103.23" electricity_abs="0.00"/>
    </tripinfo>
    <tripinfo id="flow_0.10" depart="12896.00" departLane="A4B4_0" departPos="4.60" departSpeed="0.00" departDelay="0.50" arrival="12955.00" arrivalLane="E2D2_0" arrivalPos="85.60" arrivalSpeed="13.86" duration="59.00" routeLength="675.81" waitingTime="0.00" waitingCount="0" stopTime="0.00" timeLoss="9.58" rerouteNo="0" devices="tripinfo_flow_0.10 emissions_flow_0.10" vType="car" speedFactor="1.18" vaporized="">
        <emissions CO_abs="1762.52" CO2_abs="168081.48" HC_abs="12.04" PMx_abs="2.83" NOx_abs="67.33" fuel_abs="53625.92" electricity_abs="0.00"/>
    </tripinfo>
    <tripinfo id="flow_1.20" depart="12993.00" departLane="A2A3_0" departPos="7.60" departSpeed="0.00" departDelay="0.60" arrival="13069.00" arrivalLane="C0B0_0" arrivalPos="85.60" arrivalSpeed="9.84" duration="76.00" routeLength="661.89" waitingTime="0.00" waitingCount="0" stopTime="0.00" timeLoss="9.05" rerouteNo="0" devices="tripinfo_flow_1.20 emissions_flow_1.20" vType="bus" speedFactor="1.15" vaporized="">
        <emissions CO_abs="2203.03" CO2_abs="160751.13" HC_abs="13.85" PMx_abs="2.74" NOx_abs="63.58" fuel_abs="51286.24" electricity_abs="0.00"/>
    </tripinfo>
    <tripinfo id="flow_1.21" depart="13643.00" departLane="A2A3_0" departPos="7.60" departSpeed="0.00" departDelay="0.98" arrival="13721.00" arrivalLane="C0B0_0" arrivalPos="85.60" arrivalSpeed="8.93" duration="78.00" routeLength="661.89" waitingTime="0.00" waitingCount="0" stopTime="0.00" timeLoss="10.27" rerouteNo="0" devices="tripinfo_flow_1.21 emissions_flow_1.21" vType="bus" speedFactor="1.01" vaporized="">
        <emissions CO_abs="2322.57" CO2_abs="164089.73" HC_abs="14.46" PMx_abs="2.82" NOx_abs="64.81" fuel_abs="52351.30" electricity_abs="0.00"/>
    </tripinfo>
    <tripinfo id="flow_0.11" depart="14186.00" departLane="A4B4_0" departPos="4.60" departSpeed="0.00" departDelay="0.95" arrival="14245.00" arrivalLane="E2D2_0" arrivalPos="85.60" arrivalSpeed="13.36" duration="59.00" routeLength="675.81" waitingTime="0.00" waitingCount="0" stopTime="0.00" timeLoss="9.66" rerouteNo="0" devices="tripinfo_flow_0.11 emissions_flow_0.11" vType="car" speedFactor="1.17" vaporized="">
        <emissions CO_abs="1803.60" CO2_abs="169934.29" HC_abs="12.24" PMx_abs="2.86" NOx_abs="67.90" fuel_abs="54217.11" electricity_abs="0.00"/>
    </tripinfo>
    <tripinfo id="flow_1.22" depart="14292.00" departLane="A2A3_0" departPos="7.60" departSpeed="0.00" departDelay="0.36" arrival="14370.00" arrivalLane="C0B0_0" arrivalPos="85.60" arrivalSpeed="9.12" duration="78.00" routeLength="661.89" waitingTime="0.00" waitingCount="0" stopTime="0.00" timeLoss="9.91" rerouteNo="0" devices="tripinfo_flow_1.22 emissions_flow_1.22" vType="bus" speedFactor="0.99" vaporized="">
        <emissions CO_abs="2238.39" CO2_abs="158794.16" HC_abs="13.96" PMx_abs="2.74" NOx_abs="62.77" fuel_abs="50661.80" electricity_abs="0.00"/>
    </tripinfo>
    <tripinfo id="flow_1.23" depart="14942.00" departLane="A2A3_0" departPos="7.60" departSpeed="0.00" departDelay="0.74" arrival="15019.00" arrivalLane="C0B0_0" arrivalPos="85.60" arrivalSpeed="8.94" duration="77.00" routeLength="661.89" waitingTime="0.00" waitingCount="0" stopTime="0.00" timeLoss="9.10" rerouteNo="0" devices="tripinfo_flow_1.23 emissions_flow_1.23" vType="bus" speedFactor="1.02" vaporized="">
        <emissions CO_abs="2208.79" CO2_abs="160008.78" HC_abs="13.86" PMx_abs="2.74" NOx_abs="63.26" fuel_abs="51049.38" electricity_abs="0.00"/>
    </tripinfo>
    <tripinfo id="flow_0.12" depart="15475.00" departLane="A4B4_0" departPos="4.60" departSpeed="0.00" departDelay="0.40" arrival="15538.00" arrivalLane="E2D2_0" arrivalPos="85.60" arrivalSpeed="12.26" duration="63.00" routeLength="675.81" waitingTime="0.00" waitingCount="0" stopTime="0.00" timeLoss="10.71" rerouteNo="0" devices="tripinfo_flow_0.12 emissions_flow_0.12" vType="car" speedFactor="0.97" vaporized="">
        <emissions CO_abs="1876.09" CO2_abs="171738.90" HC_abs="12.54" PMx_abs="2.79" NOx_abs="67.41" fuel_abs="54793.09" electricity_abs="0.00"/>
    </tripinfo>
    <tripinfo id="flow_1.24" depart="15591.00" departLane="A2A3_0" departPos="7.60" departSpeed="0.00" departDelay="0.12" arrival="15667.00" arrivalLane="C0B0_0" arrivalPos="85.60" arrivalSpeed="9.37" duration="76.00" routeLength="661.89" waitingTime="0.00" waitingCount="0" stopTime="0.00" timeLoss="8.64" rerouteNo="0" devices="tripinfo_flow_1.24 emissions_flow_1.24" vType="bus" speedFactor="1.18" vaporized="">
        <emissions CO_abs="2225.82" CO2_abs="165151.12" HC_abs="14.04" PMx_abs="2.72" NOx_abs="64.60" fuel_abs="52690.27" electricity_abs="0.00"/>
    </tripinfo>
    <tripinfo id="flow_1.25" depart="16241.00" departLane="A2A3_0" departPos="7.60" departSpeed="0.00" departDelay="0.50" arrival="16319.00" arrivalLane="C0B0_0" arrivalPos="85.60" arrivalSpeed="9.85" duration="78.00" routeLength="661.89" waitingTime="0.00" waitingCount="0" stopTime="0.00" timeLoss="10.67" rerouteNo="0" devices="tripinfo_flow_1.25 emissions_flow_1.25" vType="bus" speedFactor="1.10" vaporized="">
        <emissions CO_abs="2414.63" CO2_abs="169236.55" HC_abs="15.01" PMx_abs="2.94" NOx_abs="67.05" fuel_abs="53993.26" electricity_abs="0.00"/>
    </tripinfo>
    <tripinfo id="flow_0.13" depart="16765.00" departLane="A4B4_0" departPos="4.60" departSpeed="0.00" departDelay="0.85" arrival="16831.00" arrivalLane="E2D2_0" arrivalPos="85.60" arrivalSpeed="12.35" duration="66.00" routeLength="675.81" waitingTime="0.00" waitingCount="0" stopTime="0.00" timeLoss="9.95" rerouteNo="0" devices="tripinfo_flow_0.13 emissions_flow_0.13" vType="car" speedFactor="0.90" vaporized="">
        <emissions CO_abs="2000.66" CO2_abs="171418.78" HC_abs="13.24" PMx_abs="2.88" NOx_abs="68.15" fuel_abs="54690.32" electricity_abs="0.00"/>
    </tripinfo>
    <tripinfo id="flow_1.26" depart="16891.00" departLane="A2A3_0" departPos="7.60" departSpeed="0.00" departDelay="0.88" arrival="16968.00" arrivalLane="C0B0_0" arrivalPos="85.60" arrivalSpeed="9.04" duration="77.00" routeLength="661.89" waitingTime="0.00" waitingCount="0" stopTime="0.00" timeLoss="9.31" rerouteNo="0" devices="tripinfo_flow_1.26 emissions_flow_1.26" vType="bus" speedFactor="1.03" vaporized="">
        <emissions CO_abs="2313.87" CO2_abs="166586.03" HC_abs="14.49" PMx_abs="2.86" NOx_abs="65.90" fuel_abs="53147.76" electricity_abs="0.00"/>
    </tripinfo>
    <tripinfo id="flow_1.27" depart="17540.00" departLane="A2A3_0" departPos="7.60" departSpeed="0.00" departDelay="0.26" arrival="17618.00" arrivalLane="C0B0_0" arrivalPos="85.60" arrivalSpeed="9.76" duration="78.00" routeLength="661.89" waitingTime="0.00" waitingCount="0" stopTime="0.00" timeLoss="9.61" rerouteNo="0" devices="tripinfo_flow_1.27 emissions_flow_1.27" vType="bus" speedFactor="0.96" vaporized="">
        <emissions CO_abs="2321.48" CO2_abs="164103.75" HC_abs="14.49" PMx_abs="2.90" NOx_abs="65.55" fuel_abs="52355.58" electricity_abs="0.00"/>
    </tripinfo>
    <tripinfo id="flow_0.14" depart="18054.00" departLane="A4B4_0" departPos="4.60" departSpeed="0.00" departDelay="0.30" arrival="18114.00" arrivalLane="E2D2_0" arrivalPos="85.60" arrivalSpeed="13.32" duration="60.00" routeLength="675.81" waitingTime="0.00" waitingCount="0" stopTime="0.00" timeLoss="10.44" rerouteNo="0" devices="tripinfo_flow_0.14 emissions_flow_0.14" vType="car" speedFactor="1.09" vaporized="">
        <emissions CO_abs="1867.71" CO2_abs="166900.55" HC_abs="12.38" PMx_abs="2.84" NOx_abs="66.44" fuel_abs="53249.15" electricity_abs="0.00"/>
    </tripinfo>
    <tripinfo id="flow_1.28" depart="18190.00" departLane="A2A3_0" departPos="7.60" departSpeed="0.00" departDelay="0.64" arrival="18267.00" arrivalLane="C0B0_0" arrivalPos="85.60" arrivalSpeed="8.80" duration="77.00" routeLength="661.89" waitingTime="0.00" waitingCount="0" stopTime="0.00" timeLoss="8.96" rerouteNo="0" devices="tripinfo_flow_1.28 emissions_flow_1.28" vType="bus" speedFactor="1.04" vaporized="">
        <emissions CO_abs="2226.48" CO2_abs="167999.44" HC_abs="14.10" PMx_abs="2.72" NOx_abs="65.37" fuel_abs="53599.15" electricity_abs="0.00"/>
    </tripinfo>
    <tripinfo id="flow_1.29" depart="18839.00" departLane="A2A3_0" departPos="7.60" departSpeed="0.00" departDelay="0.02" arrival="18916.00" arrivalLane="C0B0_0" arrivalPos="85.60" arrivalSpeed="9.68" duration="77.00" routeLength="661.89" waitingTime="0.00" waitingCount="0" stopTime="0.00" timeLoss="8.98" rerouteNo="0" devices="tripinfo_flow_1.29 emissions_flow_1.29" vType="bus" speedFactor="1.04" vaporized="">
        <emissions CO_abs="2217.00" CO2_abs="163456.36" HC_abs="13.95" PMx_abs="2.69" NOx_abs="63.83" fuel_abs="52149.57" electricity_abs="0.00"/>
    </tripinfo>
    <tripinfo id="flow_0.15" depart="19344.00" departLane="A4B4_0" departPos="4.60" departSpeed="0.00" departDelay="0.75" arrival="19403.00" arrivalLane="E2D2_0" arrivalPos="85.60" arrivalSpeed="13.40" duration="59.00" routeLength="675.81" waitingTime="0.00" waitingCount="0" stopTime="0.00" timeLoss="9.64" rerouteNo="0" devices="tripinfo_flow_0.15 emissions_flow_0.15" vType="car" speedFactor="1.09" vaporized="">
        <emissions CO_abs="1728.81" CO2_abs="169900.91" HC_abs="11.86" PMx_abs="2.73" NOx_abs="67.02" fuel_abs="54206.78" electricity_abs="0.00"/>
    </tripinfo>
    <tripinfo id="flow_1.30" depart="19489.00" departLane="A2A3_0" departPos="7.60" departSpeed="0.00" departDelay="0.40" arrival="19567.00" arrivalLane="C0B0_0" arrivalPos="85.60" arrivalSpeed="9.25" duration="78.00" routeLength="661.89" waitingTime="0.00" waitingCount="0" stopTime="0.00" timeLoss="10.04" rerouteNo="0" devices="tripinfo_flow_1.30 emissions_flow_1.30" vType="bus" speedFactor="1.00" vaporized="">
        <emissions CO_abs="2234.65" CO2_abs="161560.74" HC_abs="14.00" PMx_abs="2.72" NOx_abs="63.52" fuel_abs="51544.60" electricity_abs="0.00"/>
    </tripinfo>
    <tripinfo id="flow_1.31" depart="20139.00" departLane="A2A3_0" departPos="7.60" departSpeed="0.00" departDelay="0.78" arrival="20218.00" arrivalLane="C0B0_0" arrivalPos="85.60" arrivalSpeed="9.82" duration="79.00" routeLength="661.89" waitingTime="0.00" waitingCount="0" stopTime="0.00" timeLoss="10.37" rerouteNo="0" devices="tripinfo_flow_1.31 emissions_flow_1.31" vType="bus" speedFactor="0.90" vaporized="">
        <emissions CO_abs="2447.87" CO2_abs="171134.07" HC_abs="15.23" PMx_abs="3.05" NOx_abs="68.42" fuel_abs="54598.48" electricity_abs="0.00"/>
    </tripinfo>
    <tripinfo id="flow_0.16" depart="20633.00" departLane="A4B4_0" departPos="4.60" departSpeed="0.00" departDelay="0.20" arrival="20700.00" arrivalLane="E2D2_0" arrivalPos="85.60" arrivalSpeed="11.89" duration="67.00" routeLength="675.81" waitingTime="0.00" waitingCount="0" stopTime="0.00" timeLoss="10.36" rerouteNo="0" devices="tripinfo_flow_0.16 emissions_flow_0.16" vType="car" speedFactor="0.88" vaporized="">
        <emissions CO_abs="1972.73" CO2_abs="162896.17" HC_abs="12.92" PMx_abs="2.78" NOx_abs="64.90" fuel_abs="51971.04" electricity_abs="0.00"/>
    </tripinfo>
    <tripinfo id="flow_1.32" depart="20788.00" departLane="A2A3_0" departPos="7.60" departSpeed="0.00" departDelay="0.16" arrival="20868.00" arrivalLane="C0B0_0" arrivalPos="85.60" arrivalSpeed="9.90" duration="80.00" routeLength="661.89" waitingTime="0.00" waitingCount="0" stopTime="0.00" timeLoss="11.48" rerouteNo="0" devices="tripinfo_flow_1.32 emissions_flow_1.32" vType="bus" speedFactor="0.85" vaporized="">
        <emissions CO_abs="2490.04" CO2_abs="176894.47" HC_abs="15.52" PMx_abs="3.01" NOx_abs="69.61" fuel_abs="56436.62" electricity_abs="0.00"/>
    </tripinfo>