<?xml version="1.0" encoding="UTF-8"?>

<!-- generated on 2025-11-11 15:33:19 by Eclipse SUMO sumo Version 1.24.0
<sumoConfiguration xmlns:xsi="http://www.w3.org/2001/XMLSchema-instance" xsi:noNamespaceSchemaLocation="http://sumo.dlr.de/xsd/sumoConfiguration.xsd">

    <input>
        <net-file value="D:\Rafa\TrafficCongestionPoliciesEffect-SimulationAndModulation\automate_flow\core\manhattan.net.xml"/>
        <route-files value="sumo_runs\flows\flows_sim1_day5_policy_bus_subsidy.xml"/>
    </input>

    <output>
        <emission-output value="sumo_runs\raw_xml\emissions_sim1_day5_policy_bus_subsidy.xml"/>
        <tripinfo-output value="sumo_runs\raw_xml\tripinfo_sim1_day5_policy_bus_subsidy.xml"/>
    </output>

    <report>
        <no-warnings value="true"/>
        <duration-log.statistics value="true"/>
    </report>

</sumoConfiguration>
-->

<tripinfos xmlns:xsi="http://www.w3.org/2001/XMLSchema-instance" xsi:noNamespaceSchemaLocation="http://sumo.dlr.de/xsd/tripinfo_file.xsd">
    <tripinfo id="flow_0.0" depart="0.00" departLane="A4B4_0" departPos="4.60" departSpeed="0.00" departDelay="0.00" arrival="59.00" arrivalLane="E2D2_0" arrivalPos="85.60" arrivalSpeed="13.64" duration="59.00" routeLength="675.81" waitingTime="0.00" waitingCount="0" stopTime="0.00" timeLoss="9.71" rerouteNo="0" devices="tripinfo_flow_0.0 emissions_flow_0.0" vType="car" speedFactor="1.06" vaporized="">
        <emissions CO_abs="1854.83" CO2_abs="172724.53" HC_abs="12.38" PMx_abs="2.90" NOx_abs="68.63" fuel_abs="55107.47" electricity_abs="0.00"/>
    </tripinfo>
    <tripinfo id="flow_1.0" depart="0.00" departLane="A2A3_0" departPos="7.60" departSpeed="0.00" departDelay="0.00" arrival="77.00" arrivalLane="C0B0_0" arrivalPos="85.60" arrivalSpeed="9.62" duration="77.00" routeLength="661.89" waitingTime="0.00" waitingCount="0" stopTime="0.00" timeLoss="9.38" rerouteNo="0" devices="tripinfo_flow_1.0 emissions_flow_1.0" vType="bus" speedFactor="0.94" vaporized="">
        <emissions CO_abs="2226.91" CO2_abs="158578.22" HC_abs="13.94" PMx_abs="2.83" NOx_abs="63.64" fuel_abs="50592.66" electricity_abs="0.00"/>
    </tripinfo>
    <tripinfo id="flow_1.1" depart="786.00" departLane="A2A3_0" departPos="7.60" departSpeed="0.00" departDelay="0.55" arrival="865.00" arrivalLane="C0B0_0" arrivalPos="85.60" arrivalSpeed="9.93" duration="79.00" routeLength="661.89" waitingTime="0.00" waitingCount="0" stopTime="0.00" timeLoss="10.46" rerouteNo="0" devices="tripinfo_flow_1.1 emissions_flow_1.1" vType="bus" speedFactor="1.01" vaporized="">
        <emissions CO_abs="2293.87" CO2_abs="164517.04" HC_abs="14.34" PMx_abs="2.81" NOx_abs="64.95" fuel_abs="52487.69" electricity_abs="0.00"/>
    </tripinfo>
    <tripinfo id="flow_0.1" depart="960.00" departLane="A4B4_0" departPos="4.60" departSpeed="0.00" departDelay="0.00" arrival="1019.00" arrivalLane="E2D2_0" arrivalPos="85.60" arrivalSpeed="13.78" duration="59.00" routeLength="675.81" waitingTime="0.00" waitingCount="0" stopTime="0.00" timeLoss="9.80" rerouteNo="0" devices="tripinfo_flow_0.1 emissions_flow_0.1" vType="car" speedFactor="1.08" vaporized="">
        <emissions CO_abs="1826.08" CO2_abs="172774.93" HC_abs="12.44" PMx_abs="2.94" NOx_abs="69.25" fuel_abs="55123.34" electricity_abs="0.00"/>
    </tripinfo>
    <tripinfo id="flow_1.2" depart="1571.00" departLane="A2A3_0" departPos="7.60" departSpeed="0.00" departDelay="0.10" arrival="1649.00" arrivalLane="C0B0_0" arrivalPos="85.60" arrivalSpeed="9.09" duration="78.00" routeLength="661.89" waitingTime="0.00" waitingCount="0" stopTime="0.00" timeLoss="9.75" rerouteNo="0" devices="tripinfo_flow_1.2 emissions_flow_1.2" vType="bus" speedFactor="1.03" vaporized="">
        <emissions CO_abs="2183.90" CO2_abs="158778.25" HC_abs="13.72" PMx_abs="2.73" NOx_abs="62.91" fuel_abs="50656.77" electricity_abs="0.00"/>
    </tripinfo>
    <tripinfo id="flow_0.2" depart="1920.00" departLane="A4B4_0" departPos="4.60" departSpeed="0.00" departDelay="0.00" arrival="1990.00" arrivalLane="E2D2_0" arrivalPos="85.60" arrivalSpeed="10.42" duration="70.00" routeLength="675.81" waitingTime="0.00" waitingCount="0" stopTime="0.00" timeLoss="9.79" rerouteNo="0" devices="tripinfo_flow_0.2 emissions_flow_0.2" vType="car" speedFactor="0.83" vaporized="">
        <emissions CO_abs="1912.66" CO2_abs="159744.33" HC_abs="12.58" PMx_abs="2.71" NOx_abs="63.75" fuel_abs="50965.42" electricity_abs="0.00"/>
    </tripinfo>
    <tripinfo id="flow_1.3" depart="2357.00" departLane="A2A3_0" departPos="7.60" departSpeed="0.00" departDelay="0.65" arrival="2435.00" arrivalLane="C0B0_0" arrivalPos="85.60" arrivalSpeed="8.75" duration="78.00" routeLength="661.89" waitingTime="0.00" waitingCount="0" stopTime="0.00" timeLoss="9.69" rerouteNo="0" devices="tripinfo_flow_1.3 emissions_flow_1.3" vType="bus" speedFactor="1.05" vaporized="">
        <emissions CO_abs="2292.57" CO2_abs="164874.32" HC_abs="14.34" PMx_abs="2.79" NOx_abs="64.87" fuel_abs="52601.74" electricity_abs="0.00"/>
    </tripinfo>
    <tripinfo id="flow_0.3" depart="2880.00" departLane="A4B4_0" departPos="4.60" departSpeed="0.00" departDelay="0.00" arrival="2946.00" arrivalLane="E2D2_0" arrivalPos="85.60" arrivalSpeed="11.27" duration="66.00" routeLength="675.81" waitingTime="0.00" waitingCount="0" stopTime="0.00" timeLoss="10.05" rerouteNo="0" devices="tripinfo_flow_0.3 emissions_flow_0.3" vType="car" speedFactor="0.89" vaporized="">
        <emissions CO_abs="1900.28" CO2_abs="163994.06" HC_abs="12.63" PMx_abs="2.72" NOx_abs="64.99" fuel_abs="52321.55" electricity_abs="0.00"/>
    </tripinfo>
    <tripinfo id="flow_1.4" depart="3142.00" departLane="A2A3_0" departPos="7.60" departSpeed="0.00" departDelay="0.20" arrival="3220.00" arrivalLane="C0B0_0" arrivalPos="85.60" arrivalSpeed="9.78" duration="78.00" routeLength="661.89" waitingTime="0.00" waitingCount="0" stopTime="0.00" timeLoss="9.61" rerouteNo="0" devices="tripinfo_flow_1.4 emissions_flow_1.4" vType="bus" speedFactor="0.94" vaporized="">
        <emissions CO_abs="2436.09" CO2_abs="174279.83" HC_abs="15.21" PMx_abs="2.96" NOx_abs="68.57" fuel_abs="55602.48" electricity_abs="0.00"/>
    </tripinfo>
    <tripinfo id="flow_0.4" depart="3840.00" departLane="A4B4_0" departPos="4.60" departSpeed="0.00" departDelay="0.00" arrival="3909.00" arrivalLane="E2D2_0" arrivalPos="85.60" arrivalSpeed="11.28" duration="69.00" routeLength="675.81" waitingTime="0.00" waitingCount="0" stopTime="0.00" timeLoss="10.59" rerouteNo="0" devices="tripinfo_flow_0.4 emissions_flow_0.4" vType="car" speedFactor="0.86" vaporized="">
        <emissions CO_abs="1938.21" CO2_abs="163743.70" HC_abs="12.80" PMx_abs="2.74" NOx_abs="65.02" fuel_abs="52241.54" electricity_abs="0.00"/>
    </tripinfo>
    <tripinfo id="flow_1.5" depart="3928.00" departLane="A2A3_0" departPos="7.60" departSpeed="0.00" departDelay="0.75" arrival="4004.00" arrivalLane="C0B0_0" arrivalPos="85.60" arrivalSpeed="8.97" duration="76.00" routeLength="661.89" waitingTime="0.00" waitingCount="0" stopTime="0.00" timeLoss="8.75" rerouteNo="0" devices="tripinfo_flow_1.5 emissions_flow_1.5" vType="bus" speedFactor="1.09" vaporized="">
        <emissions CO_abs="2254.95" CO2_abs="166665.90" HC_abs="14.22" PMx_abs="2.79" NOx_abs="65.58" fuel_abs="53173.43" electricity_abs="0.00"/>
    </tripinfo>
    <tripinfo id="flow_1.6" depart="4713.00" departLane="A2A3_0" departPos="7.60" departSpeed="0.00" departDelay="0.30" arrival="4789.00" arrivalLane="C0B0_0" arrivalPos="85.60" arrivalSpeed="9.65" duration="76.00" routeLength="661.89" waitingTime="0.00" waitingCount="0" stopTime="0.00" timeLoss="8.46" rerouteNo="0" devices="tripinfo_flow_1.6 emissions_flow_1.6" vType="bus" speedFactor="1.03" vaporized="">
        <emissions CO_abs="2185.26" CO2_abs="161052.12" HC_abs="13.77" PMx_abs="2.71" NOx_abs="63.43" fuel_abs="51382.37" electricity_abs="0.00"/>
    </tripinfo>
    <tripinfo id="flow_0.5" depart="4800.00" departLane="A4B4_0" departPos="4.60" departSpeed="0.00" departDelay="0.00" arrival="4860.00" arrivalLane="E2D2_0" arrivalPos="85.60" arrivalSpeed="12.86" duration="60.00" routeLength="675.81" waitingTime="0.00" waitingCount="0" stopTime="0.00" timeLoss="10.06" rerouteNo="0" devices="tripinfo_flow_0.5 emissions_flow_0.5" vType="car" speedFactor="1.05" vaporized="">
        <emissions CO_abs="1826.72" CO2_abs="171863.61" HC_abs="12.34" PMx_abs="2.84" NOx_abs="68.02" fuel_abs="54832.85" electricity_abs="0.00"/>
    </tripinfo>
    <tripinfo id="flow_1.7" depart="5499.00" departLane="A2A3_0" departPos="7.60" departSpeed="0.00" departDelay="0.85" arrival="5575.00" arrivalLane="C0B0_0" arrivalPos="85.60" arrivalSpeed="9.70" duration="76.00" routeLength="661.89" waitingTime="0.00" waitingCount="0" stopTime="0.00" timeLoss="8.98" rerouteNo="0" devices="tripinfo_flow_1.7 emissions_flow_1.7" vType="bus" speedFactor="1.12" vaporized="">
        <emissions CO_abs="2105.33" CO2_abs="156011.77" HC_abs="13.30" PMx_abs="2.66" NOx_abs="61.76" fuel_abs="49774.23" electricity_abs="0.00"/>
    </tripinfo>
    <tripinfo id="flow_0.6" depart="5760.00" departLane="A4B4_0" departPos="4.60" departSpeed="0.00" departDelay="0.00" arrival="5822.00" arrivalLane="E2D2_0" arrivalPos="85.60" arrivalSpeed="12.88" duration="62.00" routeLength="675.81" waitingTime="0.00" waitingCount="0" stopTime="0.00" timeLoss="11.05" rerouteNo="0" devices="tripinfo_flow_0.6 emissions_flow_0.6" vType="car" speedFactor="0.99" vaporized="">
        <emissions CO_abs="1982.95" CO2_abs="168377.43" HC_abs="13.11" PMx_abs="2.99" NOx_abs="67.97" fuel_abs="53719.82" electricity_abs="0.00"/>
    </tripinfo>
    <tripinfo id="flow_1.8" depart="6284.00" departLane="A2A3_0" departPos="7.60" departSpeed="0.00" departDelay="0.40" arrival="6363.00" arrivalLane="C0B0_0" arrivalPos="85.60" arrivalSpeed="9.12" duration="79.00" routeLength="661.89" waitingTime="0.00" waitingCount="0" stopTime="0.00" timeLoss="10.94" rerouteNo="0" devices="tripinfo_flow_1.8 emissions_flow_1.8" vType="bus" speedFactor="0.93" vaporized="">
        <emissions CO_abs="2389.09" CO2_abs="165606.28" HC_abs="14.78" PMx_abs="2.84" NOx_abs="65.13" fuel_abs="52835.14" electricity_abs="0.00"/>
    </tripinfo>
    <tripinfo id="flow_0.7" depart="6720.00" departLane="A4B4_0" departPos="4.60" departSpeed="0.00" departDelay="0.00" arrival="6786.00" arrivalLane="E2D2_0" arrivalPos="85.60" arrivalSpeed="10.91" duration="66.00" routeLength="675.81" waitingTime="0.00" waitingCount="0" stopTime="0.00" timeLoss="9.24" rerouteNo="0" devices="tripinfo_flow_0.7 emissions_flow_0.7" vType="car" speedFactor="0.88" vaporized="">
        <emissions CO_abs="1917.31" CO2_abs="166335.19" HC_abs="12.69" PMx_abs="2.73" NOx_abs="65.48" fuel_abs="53068.65" electricity_abs="0.00"/>
    </tripinfo>
    <tripinfo id="flow_1.9" depart="7070.00" departLane="A2A3_0" departPos="7.60" departSpeed="0.00" departDelay="0.95" arrival="7149.00" arrivalLane="C0B0_0" arrivalPos="85.60" arrivalSpeed="8.92" duration="79.00" routeLength="661.89" waitingTime="0.00" waitingCount="0" stopTime="0.00" timeLoss="10.99" rerouteNo="0" devices="tripinfo_flow_1.9 emissions_flow_1.9" vType="bus" speedFactor="0.94" vaporized="">
        <emissions CO_abs="2370.89" CO2_abs="161021.31" HC_abs="14.65" PMx_abs="2.96" NOx_abs="65.00" fuel_abs="51371.84" electricity_abs="0.00"/>
    </tripinfo>
    <tripinfo id="flow_0.8" depart="7680.00" departLane="A4B4_0" departPos="4.60" departSpeed="0.00" departDelay="0.00" arrival="7744.00" arrivalLane="E2D2_0" arrivalPos="85.60" arrivalSpeed="12.56" duration="64.00" routeLength="675.81" waitingTime="0.00" waitingCount="0" stopTime="0.00" timeLoss="10.56" rerouteNo="0" devices="tripinfo_flow_0.8 emissions_flow_0.8" vType="car" speedFactor="0.94" vaporized="">
        <emissions CO_abs="1971.72" CO2_abs="168594.55" HC_abs="13.01" PMx_abs="2.94" NOx_abs="67.70" fuel_abs="53789.15" electricity_abs="0.00"/>
    </tripinfo>
    <tripinfo id="flow_1.10" depart="7855.00" departLane="A2A3_0" departPos="7.60" departSpeed="0.00" departDelay="0.50" arrival="7932.00" arrivalLane="C0B0_0" arrivalPos="85.60" arrivalSpeed="9.25" duration="77.00" routeLength="661.89" waitingTime="0.00" waitingCount="0" stopTime="0.00" timeLoss="9.24" rerouteNo="0" devices="tripinfo_flow_1.10 emissions_flow_1.10" vType="bus" speedFactor="1.16" vaporized="">
        <emissions CO_abs="2104.30" CO2_abs="153389.79" HC_abs="13.23" PMx_abs="2.64" NOx_abs="60.87" fuel_abs="48937.60" electricity_abs="0.00"/>
    </tripinfo>
    <tripinfo id="flow_0.9" depart="8640.00" departLane="A4B4_0" departPos="4.60" departSpeed="0.00" departDelay="0.00" arrival="8701.00" arrivalLane="E2D2_0" arrivalPos="85.60" arrivalSpeed="13.66" duration="61.00" routeLength="675.81" waitingTime="0.00" waitingCount="0" stopTime="0.00" timeLoss="10.82" rerouteNo="0" devices="tripinfo_flow_0.9 emissions_flow_0.9" vType="car" speedFactor="1.02" vaporized="">
        <emissions CO_abs="1826.91" CO2_abs="169636.06" HC_abs="12.36" PMx_abs="2.91" NOx_abs="68.16" fuel_abs="54121.78" electricity_abs="0.00"/>
    </tripinfo>
    <tripinfo id="flow_1.11" depart="8640.00" departLane="A2A3_0" departPos="7.60" departSpeed="0.00" departDelay="0.05" arrival="8718.00" arrivalLane="C0B0_0" arrivalPos="85.60" arrivalSpeed="9.85" duration="78.00" routeLength="661.89" waitingTime="0.00" waitingCount="0" stopTime="0.00" timeLoss="9.87" rerouteNo="0" devices="tripinfo_flow_1.11 emissions_flow_1.11" vType="bus" speedFactor="1.01" vaporized="">
        <emissions CO_abs="2367.83" CO2_abs="172554.22" HC_abs="14.88" PMx_abs="2.94" NOx_abs="68.18" fuel_abs="55051.92" electricity_abs="0.00"/>
    </tripinfo>
    <tripinfo id="flow_1.12" depart="9426.00" departLane="A2A3_0" departPos="7.60" departSpeed="0.00" departDelay="0.60" arrival="9505.00" arrivalLane="C0B0_0" arrivalPos="85.60" arrivalSpeed="9.46" duration="79.00" routeLength="661.89" waitingTime="0.00" waitingCount="0" stopTime="0.00" timeLoss="10.29" rerouteNo="0" devices="tripinfo_flow_1.12 emissions_flow_1.12" vType="bus" speedFactor="0.97" vaporized="">
        <emissions CO_abs="2301.91" CO2_abs="163165.27" HC_abs="14.37" PMx_abs="2.87" NOx_abs="65.09" fuel_abs="52056.20" electricity_abs="0.00"/>
    </tripinfo>
    <tripinfo id="flow_0.10" depart="9600.00" departLane="A4B4_0" departPos="4.60" departSpeed="0.00" departDelay="0.00" arrival="9665.00" arrivalLane="E2D2_0" arrivalPos="85.60" arrivalSpeed="12.29" duration="65.00" routeLength="675.81" waitingTime="0.00" waitingCount="0" stopTime="0.00" timeLoss="9.17" rerouteNo="0" devices="tripinfo_flow_0.10 emissions_flow_0.10" vType="car" speedFactor="0.89" vaporized="">
        <emissions CO_abs="1850.23" CO2_abs="163832.65" HC_abs="12.34" PMx_abs="2.73" NOx_abs="65.01" fuel_abs="52270.14" electricity_abs="0.00"/>
    </tripinfo>
    <tripinfo id="flow_1.13" depart="10211.00" departLane="A2A3_0" departPos="7.60" departSpeed="0.00" departDelay="0.15" arrival="10291.00" arrivalLane="C0B0_0" arrivalPos="85.60" arrivalSpeed="8.84" duration="80.00" routeLength="661.89" waitingTime="0.00" waitingCount="0" stopTime="0.00" timeLoss="10.63" rerouteNo="0" devices="tripinfo_flow_1.13 emissions_flow_1.13" vType="bus" speedFactor="0.83" vaporized="">
        <emissions CO_abs="2417.24" CO2_abs="169615.73" HC_abs="15.04" PMx_abs="2.98" NOx_abs="67.45" fuel_abs="54114.17" electricity_abs="0.00"/>
    </tripinfo>
    <tripinfo id="flow_0.11" depart="10560.00" departLane="A4B4_0" departPos="4.60" departSpeed="0.00" departDelay="0.00" arrival="10627.00" arrivalLane="E2D2_0" arrivalPos="85.60" arrivalSpeed="10.98" duration="67.00" routeLength="675.81" waitingTime="0.00" waitingCount="0" stopTime="0.00" timeLoss="9.62" rerouteNo="0" devices="tripinfo_flow_0.11 emissions_flow_0.11" vType="car" speedFactor="0.87" vaporized="">
        <emissions CO_abs="1823.52" CO2_abs="162929.26" HC_abs="12.18" PMx_abs="2.61" NOx_abs="63.81" fuel_abs="51982.16" electricity_abs="0.00"/>
    </tripinfo>
    <tripinfo id="flow_1.14" depart="10997.00" departLane="A2A3_0" departPos="7.60" departSpeed="0.00" departDelay="0.70" arrival="11075.00" arrivalLane="C0B0_0" arrivalPos="85.60" arrivalSpeed="8.85" duration="78.00" routeLength="661.89" waitingTime="0.00" waitingCount="0" stopTime="0.00" timeLoss="9.15" rerouteNo="0" devices="tripinfo_flow_1.14 emissions_flow_1.14" vType="bus" speedFactor="0.92" vaporized="">
        <emissions CO_abs="2203.72" CO2_abs="160215.80" HC_abs="13.81" PMx_abs="2.66" NOx_abs="62.60" fuel_abs="51115.64" electricity_abs="0.00"/>
    </tripinfo>
    <tripinfo id="flow_0.12" depart="11520.00" departLane="A4B4_0" departPos="4.60" departSpeed="0.00" departDelay="0.00" arrival="11583.00" arrivalLane="E2D2_0" arrivalPos="85.60" arrivalSpeed="12.13" duration="63.00" routeLength="675.81" waitingTime="0.00" waitingCount="0" stopTime="0.00" timeLoss="10.83" rerouteNo="0" devices="tripinfo_flow_0.12 emissions_flow_0.12" vType="car" speedFactor="0.95" vaporized="">
        <emissions CO_abs="1827.27" CO2_abs="166988.71" HC_abs="12.22" PMx_abs="2.77" NOx_abs="66.06" fuel_abs="53277.37" electricity_abs="0.00"/>
    </tripinfo>
    <tripinfo id="flow_1.15" depart="11782.00" departLane="A2A3_0" departPos="7.60" departSpeed="0.00" departDelay="0.25" arrival="11858.00" arrivalLane="C0B0_0" arrivalPos="85.60" arrivalSpeed="9.75" duration="76.00" routeLength="661.89" waitingTime="0.00" waitingCount="0" stopTime="0.00" timeLoss="9.10" rerouteNo="0" devices="tripinfo_flow_1.15 emissions_flow_1.15" vType="bus" speedFactor="1.13" vaporized="">
        <emissions CO_abs="2161.57" CO2_abs="157795.35" HC_abs="13.56" PMx_abs="2.62" NOx_abs="61.69" fuel_abs="50343.42" electricity_abs="0.00"/>
    </tripinfo>
    <tripinfo id="flow_0.13" depart="12480.00" departLane="A4B4_0" departPos="4.60" departSpeed="0.00" departDelay="0.00" arrival="12545.00" arrivalLane="E2D2_0" arrivalPos="85.60" arrivalSpeed="12.74" duration="65.00" routeLength="675.81" waitingTime="0.00" waitingCount="0" stopTime="0.00" timeLoss="11.18" rerouteNo="0" devices="tripinfo_flow_0.13 emissions_flow_0.13" vType="car" speedFactor="0.93" vaporized="">
        <emissions CO_abs="1864.35" CO2_abs="163449.47" HC_abs="12.37" PMx_abs="2.69" NOx_abs="64.50" fuel_abs="52148.00" electricity_abs="0.00"/>
    </tripinfo>
    <tripinfo id="flow_1.16" depart="12568.00" departLane="A2A3_0" departPos="7.60" departSpeed="0.00" departDelay="0.80" arrival="12645.00" arrivalLane="C0B0_0" arrivalPos="85.60" arrivalSpeed="9.16" duration="77.00" routeLength="661.89" waitingTime="0.00" waitingCount="0" stopTime="0.00" timeLoss="10.24" rerouteNo="0" devices="tripinfo_flow_1.16 emissions_flow_1.16" vType="bus" speedFactor="1.18" vaporized="">
        <emissions CO_abs="2277.96" CO2_abs="164836.41" HC_abs="14.26" PMx_abs="2.75" NOx_abs="64.57" fuel_abs="52589.75" electricity_abs="0.00"/>
    </tripinfo>
    <tripinfo id="flow_1.17" depart="13353.00" departLane="A2A3_0" departPos="7.60" departSpeed="0.00" departDelay="0.35" arrival="13430.00" arrivalLane="C0B0_0" arrivalPos="85.60" arrivalSpeed="9.05" duration="77.00" routeLength="661.89" waitingTime="0.00" waitingCount="0" stopTime="0.00" timeLoss="10.13" rerouteNo="0" devices="tripinfo_flow_1.17 emissions_flow_1.17" vType="bus" speedFactor="1.15" vaporized="">
        <emissions CO_abs="2246.22" CO2_abs="162744.06" HC_abs="14.05" PMx_abs="2.67" NOx_abs="63.32" fuel_abs="51922.32" electricity_abs="0.00"/>
    </tripinfo>
    <tripinfo id="flow_0.14" depart="13440.00" departLane="A4B4_0" departPos="4.60" departSpeed="0.00" departDelay="0.00" arrival="13500.00" arrivalLane="E2D2_0" arrivalPos="85.60" arrivalSpeed="12.96" duration="60.00" routeLength="675.81" waitingTime="0.00" waitingCount="0" stopTime="0.00" timeLoss="10.34" rerouteNo="0" devices="tripinfo_flow_0.14 emissions_flow_0.14" vType="car" speedFactor="1.01" vaporized="">
        <emissions CO_abs="1799.15" CO2_abs="165404.99" HC_abs="12.05" PMx_abs="2.79" NOx_abs="65.94" fuel_abs="52772.02" electricity_abs="0.00"/>
    </tripinfo>
    <tripinfo id="flow_1.18" depart="14139.00" departLane="A2A3_0" departPos="7.60" departSpeed="0.00" departDelay="0.90" arrival="14217.00" arrivalLane="C0B0_0" arrivalPos="85.60" arrivalSpeed="9.90" duration="78.00" routeLength="661.89" waitingTime="0.00" waitingCount="0" stopTime="0.00" timeLoss="10.25" rerouteNo="0" devices="tripinfo_flow_1.18 emissions_flow_1.18" vType="bus" speedFactor="1.17" vaporized="">
        <emissions CO_abs="2271.00" CO2_abs="163371.28" HC_abs="14.19" PMx_abs="2.73" NOx_abs="63.90" fuel_abs="52122.31" electricity_abs="0.00"/>
    </tripinfo>
    <tripinfo id="flow_0.15" depart="14400.00" departLane="A4B4_0" departPos="4.60" departSpeed="0.00" departDelay="0.00" arrival="14462.00" arrivalLane="E2D2_0" arrivalPos="85.60" arrivalSpeed="13.00" duration="62.00" routeLength="675.81" waitingTime="0.00" waitingCount="0" stopTime="0.00" timeLoss="11.43" rerouteNo="0" devices="tripinfo_flow_0.15 emissions_flow_0.15" vType="car" speedFactor="0.99" vaporized="">
        <emissions CO_abs="2001.60" CO2_abs="175738.00" HC_abs="13.18" PMx_abs="3.02" NOx_abs="70.11" fuel_abs="56068.60" electricity_abs="0.00"/>
    </tripinfo>
    <tripinfo id="flow_1.19" depart="14924.00" departLane="A2A3_0" departPos="7.60" departSpeed="0.00" departDelay="0.45" arrival="15001.00" arrivalLane="C0B0_0" arrivalPos="85.60" arrivalSpeed="9.27" duration="77.00" routeLength="661.89" waitingTime="0.00" waitingCount="0" stopTime="0.00" timeLoss="8.88" rerouteNo="0" devices="tripinfo_flow_1.19 emissions_flow_1.19" vType="bus" speedFactor="1.02" vaporized="">
        <emissions CO_abs="2083.27" CO2_abs="156156.17" HC_abs="13.17" PMx_abs="2.54" NOx_abs="60.80" fuel_abs="49820.60" electricity_abs="0.00"/>
    </tripinfo>
    <tripinfo id="flow_0.16" depart="15360.00" departLane="A4B4_0" departPos="4.60" departSpeed="0.00" departDelay="0.00" arrival="15422.00" arrivalLane="E2D2_0" arrivalPos="85.60" arrivalSpeed="13.44" duration="62.00" routeLength="675.81" waitingTime="0.00" waitingCount="0" stopTime="0.00" timeLoss="10.21" rerouteNo="0" devices="tripinfo_flow_0.16 emissions_flow_0.16" vType="car" speedFactor="0.97" vaporized="">
        <emissions CO_abs="1856.23" CO2_abs="167163.78" HC_abs="12.33" PMx_abs="2.79" NOx_abs="66.15" fuel_abs="53333.20" electricity_abs="0.00"/>
    </tripinfo>
    <tripinfo id="flow_1.20" depart="15709.00" departLane="A2A3_0" departPos="7.60" departSpeed="0.00" departDelay="0.00" arrival="15785.00" arrivalLane="C0B0_0" arrivalPos="85.60" arrivalSpeed="9.84" duration="76.00" routeLength="661.89" waitingTime="0.00" waitingCount="0" stopTime="0.00" timeLoss="8.90" rerouteNo="0" devices="tripinfo_flow_1.20 emissions_flow_1.20" vType="bus" speedFactor="1.18" vaporized="">
        <emissions CO_abs="2213.17" CO2_abs="163602.62" HC_abs="13.97" PMx_abs="2.77" NOx_abs="64.62" fuel_abs="52196.05" electricity_abs="0.00"/>
    </tripinfo>
    <tripinfo id="flow_0.17" depart="16320.00" departLane="A4B4_0" departPos="4.60" departSpeed="0.00" departDelay="0.00" arrival="16379.00" arrivalLane="E2D2_0" arrivalPos="85.60" arrivalSpeed="13.79" duration="59.00" routeLength="675.81" waitingTime="0.00" waitingCount="0" stopTime="0.00" timeLoss="9.53" rerouteNo="0" devices="tripinfo_flow_0.17 emissions_flow_0.17" vType="car" speedFactor="1.10" vaporized="">
        <emissions CO_abs="1783.32" CO2_abs="168504.62" HC_abs="12.14" PMx_abs="2.84" NOx_abs="67.55" fuel_abs="53760.88" electricity_abs="0.00"/>
    </tripinfo>
    <tripinfo id="flow_1.21" depart="16495.00" departLane="A2A3_0" departPos="7.60" departSpeed="0.00" departDelay="0.55" arrival="16576.00" arrivalLane="C0B0_0" arrivalPos="85.60" arrivalSpeed="9.92" duration="81.00" routeLength="661.89" waitingTime="0.00" waitingCount="0" stopTime="0.00" timeLoss="12.12" rerouteNo="0" devices="tripinfo_flow_1.21 emissions_flow_1.21" vType="bus" speedFactor="0.90" vaporized="">
        <emissions CO_abs="2569.37" CO2_abs="177087.77" HC_abs="15.89" PMx_abs="3.09" NOx_abs="70.11" fuel_abs="56498.06" electricity_abs="0.00"/>
    </tripinfo>
    <tripinfo id="flow_0.18" depart="17280.00" departLane="A4B4_0" departPos="4.60" departSpeed="0.00" departDelay="0.00" arrival="17339.00" arrivalLane="E2D2_0" arrivalPos="85.60" arrivalSpeed="13.73" duration="59.00" routeLength="675.81" waitingTime="0.00" waitingCount="0" stopTime="0.00" timeLoss="9.84" rerouteNo="0" devices="tripinfo_flow_0.18 emissions_flow_0.18" vType="car" speedFactor="1.03" vaporized="">
        <emissions CO_abs="1796.11" CO2_abs="170330.87" HC_abs="12.21" PMx_abs="2.87" NOx_abs="68.06" fuel_abs="54343.66" electricity_abs="0.00"/>
    </tripinfo>
    <tripinfo id="flow_1.22" depart="17280.00" departLane="A2A3_0" departPos="7.60" departSpeed="0.00" departDelay="0.10" arrival="17359.00" arrivalLane="C0B0_0" arrivalPos="85.60" arrivalSpeed="9.26" duration="79.00" routeLength="661.89" waitingTime="0.00" waitingCount="0" stopTime="0.00" timeLoss="10.50" rerouteNo="0" devices="tripinfo_flow_1.22 emissions_flow_1.22" vType="bus" speedFactor="0.96" vaporized="">
        <emissions CO_abs="2374.75" CO2_abs="168381.04" HC_abs="14.80" PMx_abs="2.90" NOx_abs="66.57" fuel_abs="53720.40" electricity_abs="0.00"/>
    </tripinfo>
    <tripinfo id="flow_1.23" depart="18066.00" departLane="A2A3_0" departPos="7.60" departSpeed="0.00" departDelay="0.65" arrival="18142.00" arrivalLane="C0B0_0" arrivalPos="85.60" arrivalSpeed="9.98" duration="76.00" routeLength="661.89" waitingTime="0.00" waitingCount="0" stopTime="0.00" timeLoss="8.84" rerouteNo="0" devices="tripinfo_flow_1.23 emissions_flow_1.23" vType="bus" speedFactor="1.09" vaporized="">
        <emissions CO_abs="2087.78" CO2_abs="151967.94" HC_abs="13.14" PMx_abs="2.66" NOx_abs="60.68" fuel_abs="48483.88" electricity_abs="0.00"/>
    </tripinfo>
    <tripinfo id="flow_0.19" depart="18240.00" departLane="A4B4_0" departPos="4.60" departSpeed="0.00" departDelay="0.00" arrival="18300.00" arrivalLane="E2D2_0" arrivalPos="85.60" arrivalSpeed="13.24" duration="60.00" routeLength="675.81" waitingTime="0.00" waitingCount="0" stopTime="0.00" timeLoss="10.09" rerouteNo="0" devices="tripinfo_flow_0.19 emissions_flow_0.19" vType="car" speedFactor="1.04" vaporized="">
        <emissions CO_abs="1873.68" CO2_abs="175655.92" HC_abs="12.74" PMx_abs="2.99" NOx_abs="70.38" fuel_abs="56042.48" electricity_abs="0.00"/>
    </tripinfo>
    <tripinfo id="flow_1.24" depart="18851.00" departLane="A2A3_0" departPos="7.60" departSpeed="0.00" departDelay="0.20" arrival="18927.00" arrivalLane="C0B0_0" arrivalPos="85.60" arrivalSpeed="9.52" duration="76.00" routeLength="661.89" waitingTime="0.00" waitingCount="0" stopTime="0.00" timeLoss="8.61" rerouteNo="0" devices="tripinfo_flow_1.24 emissions_flow_1.24" vType="bus" speedFactor="1.04" vaporized="">
        <emissions CO_abs="2205.44" CO2_abs="162495.50" HC_abs="13.88" PMx_abs="2.69" NOx_abs="63.61" fuel_abs="51842.98" electricity_abs="0.00"/>
    </tripinfo>
    <tripinfo id="flow_0.20" depart="19200.00" departLane="A4B4_0" departPos="4.60" departSpeed="0.00" departDelay="0.00" arrival="19259.00" arrivalLane="E2D2_0" arrivalPos="85.60" arrivalSpeed="13.41" duration="59.00" routeLength="675.81" waitingTime="0.00" waitingCount="0" stopTime="0.00" timeLoss="9.71" rerouteNo="0" devices="tripinfo_flow_0.20 emissions_flow_0.20" vType="car" speedFactor="1.09" vaporized="">
        <emissions CO_abs="1828.76" CO2_abs="171725.79" HC_abs="12.34" PMx_abs="2.92" NOx_abs="68.72" fuel_abs="54788.67" electricity_abs="0.00"/>
    </tripinfo>
    <tripinfo id="flow_1.25" depart="19637.00" departLane="A2A3_0" departPos="7.60" departSpeed="0.00" departDelay="0.75" arrival="19715.00" arrivalLane="C0B0_0" arrivalPos="85.60" arrivalSpeed="9.22" duration="78.00" routeLength="661.89" waitingTime="0.00" waitingCount="0" stopTime="0.00" timeLoss="9.73" rerouteNo="0" devices="tripinfo_flow_1.25 emissions_flow_1.25" vType="bus" speedFactor="1.00" vaporized="">
        <emissions CO_abs="2343.85" CO2_abs="164457.99" HC_abs="14.58" PMx_abs="2.87" NOx_abs="65.25" fuel_abs="52468.69" electricity_abs="0.00"/>
    </tripinfo>
    <tripinfo id="flow_0.21" depart="20160.00" departLane="A4B4_0" departPos="4.60" departSpeed="0.00" departDelay="0.00" arrival="20226.00" arrivalLane="E2D2_0" arrivalPos="85.60" arrivalSpeed="12.44" duration="66.00" routeLength="675.81" waitingTime="0.00" waitingCount="0" stopTime="0.00" timeLoss="9.61" rerouteNo="0" devices="tripinfo_flow_0.21 emissions_flow_0.21" vType="car" speedFactor="0.90" vaporized="">
        <emissions CO_abs="2043.75" CO2_abs="173465.84" HC_abs="13.50" PMx_abs="2.97" NOx_abs="69.38" fuel_abs="55343.30" electricity_abs="0.00"/>
    </tripinfo>
    <tripinfo id="flow_1.26" depart="20422.00" departLane="A2A3_0" departPos="7.60" departSpeed="0.00" departDelay="0.30" arrival="20501.00" arrivalLane="C0B0_0" arrivalPos="85.60" arrivalSpeed="8.70" duration="79.00" routeLength="661.89" waitingTime="0.00" waitingCount="0" stopTime="0.00" timeLoss="9.73" rerouteNo="0" devices="tripinfo_flow_1.26 emissions_flow_1.26" vType="bus" speedFactor="0.88" vaporized="">
        <emissions CO_abs="2346.53" CO2_abs="166486.75" HC_abs="14.61" PMx_abs="2.83" NOx_abs="65.42" fuel_abs="53116.16" electricity_abs="0.00"/>
    </tripinfo>
    <tripinfo id="flow_0.22" depart="21120.00" departLane="A4B4_0" departPos="4.60" departSpeed="0.00" departDelay="0.00" arrival="21190.00" arrivalLane="E2D2_0" arrivalPos="85.60" arrivalSpeed="10.90" duration="70.00" routeLength="675.81" waitingTime="0.00" waitingCount="0" stopTime="0.00" timeLoss="11.39" rerouteNo="0" devices="tripinfo_flow_0.22 emissions_flow_0.22" vType="car" speedFactor="0.85" vaporized="">
        <emissions CO_abs="2033.43" CO2_abs="164743.80" HC_abs="13.22" PMx_abs="2.76" NOx_abs="65.18" fuel_abs="52560.55" electricity_abs="0.00"/>
    </tripinfo>