<?xml version="1.0" encoding="UTF-8"?>

<!-- generated on 2025-11-11 15:33:08 by Eclipse SUMO sumo Version 1.24.0
<sumoConfiguration xmlns:xsi="http://www.w3.org/2001/XMLSchema-instance" xsi:noNamespaceSchemaLocation="http://sumo.dlr.de/xsd/sumoConfiguration.xsd">

    <input>
        <net-file value="D:\Rafa\TrafficCongestionPoliciesEffect-SimulationAndModulation\automate_flow\core\manhattan.net.xml"/>
        <route-files value="sumo_runs\flows\flows_sim1_day4_policy_bus_subsidy.xml"/>
    </input>

    <output>
        <emission-output value="sumo_runs\raw_xml\emissions_sim1_day4_policy_bus_subsidy.xml"/>
        <tripinfo-output value="sumo_runs\raw_xml\tripinfo_sim1_day4_policy_bus_subsidy.xml"/>
    </output>

    <report>
        <no-warnings value="true"/>
        <duration-log.statistics value="true"/>
    </report>

</sumoConfiguration>
-->

<tripinfos xmlns:xsi="http://www.w3.org/2001/XMLSchema-instance" xsi:noNamespaceSchemaLocation="http://sumo.dlr.de/xsd/tripinfo_file.xsd">
    <tripinfo id="flow_0.0" depart="0.00" departLane="A4B4_0" departPos="4.60" departSpeed="0.00" departDelay="0.00" arrival="59.00" arrivalLane="E2D2_0" arrivalPos="85.60" arrivalSpeed="13.64" duration="59.00" routeLength="675.81" waitingTime="0.00" waitingCount="0" stopTime="0.00" timeLoss="9.71" rerouteNo="0" devices="tripinfo_flow_0.0 emissions_flow_0.0" vType="car" speedFactor="1.06" vaporized="">
        <emissions CO_abs="1854.83" CO2_abs="172724.53" HC_abs="12.38" PMx_abs="2.90" NOx_abs="68.63" fuel_abs="55107.47" electricity_abs="0.00"/>
    </tripinfo>
    <tripinfo id="flow_1.0" depart="0.00" departLane="A2A3_0" departPos="7.60" departSpeed="0.00" departDelay="0.00" arrival="77.00" arrivalLane="C0B0_0" arrivalPos="85.60" arrivalSpeed="9.62" duration="77.00" routeLength="661.89" waitingTime="0.00" waitingCount="0" stopTime="0.00" timeLoss="9.38" rerouteNo="0" devices="tripinfo_flow_1.0 emissions_flow_1.0" vType="bus" speedFactor="0.94" vaporized="">
        <emissions CO_abs="2226.91" CO2_abs="158578.22" HC_abs="13.94" PMx_abs="2.83" NOx_abs="63.64" fuel_abs="50592.66" electricity_abs="0.00"/>
    </tripinfo>
    <tripinfo id="flow_0.1" depart="720.00" departLane="A4B4_0" departPos="4.60" departSpeed="0.00" departDelay="0.00" arrival="780.00" arrivalLane="E2D2_0" arrivalPos="85.60" arrivalSpeed="13.78" duration="60.00" routeLength="675.81" waitingTime="0.00" waitingCount="0" stopTime="0.00" timeLoss="10.38" rerouteNo="0" devices="tripinfo_flow_0.1 emissions_flow_0.1" vType="car" speedFactor="1.01" vaporized="">
        <emissions CO_abs="1903.66" CO2_abs="174620.26" HC_abs="12.81" PMx_abs="3.02" NOx_abs="70.23" fuel_abs="55711.93" electricity_abs="0.00"/>
    </tripinfo>
    <tripinfo id="flow_1.1" depart="1080.00" departLane="A2A3_0" departPos="7.60" departSpeed="0.00" departDelay="0.00" arrival="1158.00" arrivalLane="C0B0_0" arrivalPos="85.60" arrivalSpeed="9.93" duration="78.00" routeLength="661.89" waitingTime="0.00" waitingCount="0" stopTime="0.00" timeLoss="9.82" rerouteNo="0" devices="tripinfo_flow_1.1 emissions_flow_1.1" vType="bus" speedFactor="1.08" vaporized="">
        <emissions CO_abs="2255.25" CO2_abs="162381.19" HC_abs="14.12" PMx_abs="2.78" NOx_abs="64.16" fuel_abs="51806.26" electricity_abs="0.00"/>
    </tripinfo>
    <tripinfo id="flow_0.2" depart="1440.00" departLane="A4B4_0" departPos="4.60" departSpeed="0.00" departDelay="0.00" arrival="1499.00" arrivalLane="E2D2_0" arrivalPos="85.60" arrivalSpeed="13.49" duration="59.00" routeLength="675.81" waitingTime="0.00" waitingCount="0" stopTime="0.00" timeLoss="9.87" rerouteNo="0" devices="tripinfo_flow_0.2 emissions_flow_0.2" vType="car" speedFactor="1.03" vaporized="">
        <emissions CO_abs="1843.79" CO2_abs="172770.50" HC_abs="12.47" PMx_abs="2.96" NOx_abs="69.49" fuel_abs="55121.86" electricity_abs="0.00"/>
    </tripinfo>
    <tripinfo id="flow_0.3" depart="2160.00" departLane="A4B4_0" departPos="4.60" departSpeed="0.00" departDelay="0.00" arrival="2231.00" arrivalLane="E2D2_0" arrivalPos="85.60" arrivalSpeed="11.45" duration="71.00" routeLength="675.81" waitingTime="0.00" waitingCount="0" stopTime="0.00" timeLoss="10.09" rerouteNo="0" devices="tripinfo_flow_0.3 emissions_flow_0.3" vType="car" speedFactor="0.83" vaporized="">
        <emissions CO_abs="2019.75" CO2_abs="169019.34" HC_abs="13.26" PMx_abs="2.74" NOx_abs="66.34" fuel_abs="53924.86" electricity_abs="0.00"/>
    </tripinfo>
    <tripinfo id="flow_1.2" depart="2160.00" departLane="A2A3_0" departPos="7.60" departSpeed="0.00" departDelay="0.00" arrival="2237.00" arrivalLane="C0B0_0" arrivalPos="85.60" arrivalSpeed="9.36" duration="77.00" routeLength="661.89" waitingTime="0.00" waitingCount="0" stopTime="0.00" timeLoss="9.44" rerouteNo="0" devices="tripinfo_flow_1.2 emissions_flow_1.2" vType="bus" speedFactor="1.05" vaporized="">
        <emissions CO_abs="2199.73" CO2_abs="158494.11" HC_abs="13.77" PMx_abs="2.70" NOx_abs="62.56" fuel_abs="50566.15" electricity_abs="0.00"/>
    </tripinfo>
    <tripinfo id="flow_0.4" depart="2880.00" departLane="A4B4_0" departPos="4.60" departSpeed="0.00" departDelay="0.00" arrival="2947.00" arrivalLane="E2D2_0" arrivalPos="85.60" arrivalSpeed="11.16" duration="67.00" routeLength="675.81" waitingTime="0.00" waitingCount="0" stopTime="0.00" timeLoss="11.05" rerouteNo="0" devices="tripinfo_flow_0.4 emissions_flow_0.4" vType="car" speedFactor="0.89" vaporized="">
        <emissions CO_abs="1953.47" CO2_abs="163904.53" HC_abs="12.86" PMx_abs="2.75" NOx_abs="65.02" fuel_abs="52292.90" electricity_abs="0.00"/>
    </tripinfo>
    <tripinfo id="flow_1.3" depart="3240.00" departLane="A2A3_0" departPos="7.60" departSpeed="0.00" departDelay="0.00" arrival="3319.00" arrivalLane="C0B0_0" arrivalPos="85.60" arrivalSpeed="9.18" duration="79.00" routeLength="661.89" waitingTime="0.00" waitingCount="0" stopTime="0.00" timeLoss="10.28" rerouteNo="0" devices="tripinfo_flow_1.3 emissions_flow_1.3" vType="bus" speedFactor="0.94" vaporized="">
        <emissions CO_abs="2460.17" CO2_abs="172301.67" HC_abs="15.28" PMx_abs="2.97" NOx_abs="68.01" fuel_abs="54971.22" electricity_abs="0.00"/>
    </tripinfo>
    <tripinfo id="flow_0.5" depart="3600.00" departLane="A4B4_0" departPos="4.60" departSpeed="0.00" departDelay="0.00" arrival="3669.00" arrivalLane="E2D2_0" arrivalPos="85.60" arrivalSpeed="11.38" duration="69.00" routeLength="675.81" waitingTime="0.00" waitingCount="0" stopTime="0.00" timeLoss="10.57" rerouteNo="0" devices="tripinfo_flow_0.5 emissions_flow_0.5" vType="car" speedFactor="0.86" vaporized="">
        <emissions CO_abs="1916.28" CO2_abs="161436.28" HC_abs="12.59" PMx_abs="2.64" NOx_abs="63.45" fuel_abs="51505.54" electricity_abs="0.00"/>
    </tripinfo>
    <tripinfo id="flow_0.6" depart="4320.00" departLane="A4B4_0" departPos="4.60" departSpeed="0.00" departDelay="0.00" arrival="4380.00" arrivalLane="E2D2_0" arrivalPos="85.60" arrivalSpeed="13.06" duration="60.00" routeLength="675.81" waitingTime="0.00" waitingCount="0" stopTime="0.00" timeLoss="10.84" rerouteNo="0" devices="tripinfo_flow_0.6 emissions_flow_0.6" vType="car" speedFactor="1.09" vaporized="">
        <emissions CO_abs="1893.07" CO2_abs="172337.83" HC_abs="12.80" PMx_abs="2.96" NOx_abs="69.26" fuel_abs="54983.67" electricity_abs="0.00"/>
    </tripinfo>
    <tripinfo id="flow_1.4" depart="4320.00" departLane="A2A3_0" departPos="7.60" departSpeed="0.00" departDelay="0.00" arrival="4397.00" arrivalLane="C0B0_0" arrivalPos="85.60" arrivalSpeed="9.51" duration="77.00" routeLength="661.89" waitingTime="0.00" waitingCount="0" stopTime="0.00" timeLoss="9.05" rerouteNo="0" devices="tripinfo_flow_1.4 emissions_flow_1.4" vType="bus" speedFactor="1.03" vaporized="">
        <emissions CO_abs="2269.41" CO2_abs="167111.99" HC_abs="14.28" PMx_abs="2.76" NOx_abs="65.31" fuel_abs="53315.86" electricity_abs="0.00"/>
    </tripinfo>
    <tripinfo id="flow_0.7" depart="5040.00" departLane="A4B4_0" departPos="4.60" departSpeed="0.00" departDelay="0.00" arrival="5100.00" arrivalLane="E2D2_0" arrivalPos="85.60" arrivalSpeed="13.84" duration="60.00" routeLength="675.81" waitingTime="0.00" waitingCount="0" stopTime="0.00" timeLoss="10.23" rerouteNo="0" devices="tripinfo_flow_0.7 emissions_flow_0.7" vType="car" speedFactor="1.05" vaporized="">
        <emissions CO_abs="1935.85" CO2_abs="178168.80" HC_abs="12.92" PMx_abs="3.00" NOx_abs="70.98" fuel_abs="56844.35" electricity_abs="0.00"/>
    </tripinfo>
    <tripinfo id="flow_1.5" depart="5400.00" departLane="A2A3_0" departPos="7.60" departSpeed="0.00" departDelay="0.00" arrival="5476.00" arrivalLane="C0B0_0" arrivalPos="85.60" arrivalSpeed="9.54" duration="76.00" routeLength="661.89" waitingTime="0.00" waitingCount="0" stopTime="0.00" timeLoss="8.86" rerouteNo="0" devices="tripinfo_flow_1.5 emissions_flow_1.5" vType="bus" speedFactor="1.12" vaporized="">
        <emissions CO_abs="2252.19" CO2_abs="166476.37" HC_abs="14.21" PMx_abs="2.82" NOx_abs="65.72" fuel_abs="53112.91" electricity_abs="0.00"/>
    </tripinfo>
    <tripinfo id="flow_0.8" depart="5760.00" departLane="A4B4_0" departPos="4.60" departSpeed="0.00" departDelay="0.00" arrival="5820.00" arrivalLane="E2D2_0" arrivalPos="85.60" arrivalSpeed="13.17" duration="60.00" routeLength="675.81" waitingTime="0.00" waitingCount="0" stopTime="0.00" timeLoss="9.79" rerouteNo="0" devices="tripinfo_flow_0.8 emissions_flow_0.8" vType="car" speedFactor="0.99" vaporized="">
        <emissions CO_abs="1845.27" CO2_abs="171467.86" HC_abs="12.45" PMx_abs="2.90" NOx_abs="68.44" fuel_abs="54706.36" electricity_abs="0.00"/>
    </tripinfo>
    <tripinfo id="flow_0.9" depart="6480.00" departLane="A4B4_0" departPos="4.60" departSpeed="0.00" departDelay="0.00" arrival="6544.00" arrivalLane="E2D2_0" arrivalPos="85.60" arrivalSpeed="11.96" duration="64.00" routeLength="675.81" waitingTime="0.00" waitingCount="0" stopTime="0.00" timeLoss="10.03" rerouteNo="0" devices="tripinfo_flow_0.9 emissions_flow_0.9" vType="car" speedFactor="0.93" vaporized="">
        <emissions CO_abs="1895.24" CO2_abs="166276.01" HC_abs="12.64" PMx_abs="2.82" NOx_abs="66.35" fuel_abs="53049.58" electricity_abs="0.00"/>
    </tripinfo>
    <tripinfo id="flow_1.6" depart="6480.00" departLane="A2A3_0" departPos="7.60" departSpeed="0.00" departDelay="0.00" arrival="6559.00" arrivalLane="C0B0_0" arrivalPos="85.60" arrivalSpeed="9.65" duration="79.00" routeLength="661.89" waitingTime="0.00" waitingCount="0" stopTime="0.00" timeLoss="10.37" rerouteNo="0" devices="tripinfo_flow_1.6 emissions_flow_1.6" vType="bus" speedFactor="0.88" vaporized="">
        <emissions CO_abs="2456.97" CO2_abs="175367.54" HC_abs="15.34" PMx_abs="2.99" NOx_abs="69.11" fuel_abs="55949.46" electricity_abs="0.00"/>
    </tripinfo>
    <tripinfo id="flow_0.10" depart="7200.00" departLane="A4B4_0" departPos="4.60" departSpeed="0.00" departDelay="0.00" arrival="7263.00" arrivalLane="E2D2_0" arrivalPos="85.60" arrivalSpeed="12.08" duration="63.00" routeLength="675.81" waitingTime="0.00" waitingCount="0" stopTime="0.00" timeLoss="10.32" rerouteNo="0" devices="tripinfo_flow_0.10 emissions_flow_0.10" vType="car" speedFactor="0.94" vaporized="">
        <emissions CO_abs="1783.38" CO2_abs="165621.10" HC_abs="12.02" PMx_abs="2.70" NOx_abs="65.45" fuel_abs="52841.04" electricity_abs="0.00"/>
    </tripinfo>
    <tripinfo id="flow_1.7" depart="7560.00" departLane="A2A3_0" departPos="7.60" departSpeed="0.00" departDelay="0.00" arrival="7638.00" arrivalLane="C0B0_0" arrivalPos="85.60" arrivalSpeed="9.70" duration="78.00" routeLength="661.89" waitingTime="0.00" waitingCount="0" stopTime="0.00" timeLoss="9.57" rerouteNo="0" devices="tripinfo_flow_1.7 emissions_flow_1.7" vType="bus" speedFactor="0.94" vaporized="">
        <emissions CO_abs="2280.81" CO2_abs="161805.54" HC_abs="14.23" PMx_abs="2.81" NOx_abs="64.20" fuel_abs="51622.49" electricity_abs="0.00"/>
    </tripinfo>
    <tripinfo id="flow_0.11" depart="7920.00" departLane="A4B4_0" departPos="4.60" departSpeed="0.00" departDelay="0.00" arrival="7979.00" arrivalLane="E2D2_0" arrivalPos="85.60" arrivalSpeed="13.82" duration="59.00" routeLength="675.81" waitingTime="0.00" waitingCount="0" stopTime="0.00" timeLoss="9.63" rerouteNo="0" devices="tripinfo_flow_0.11 emissions_flow_0.11" vType="car" speedFactor="1.16" vaporized="">
        <emissions CO_abs="1736.38" CO2_abs="166514.52" HC_abs="11.84" PMx_abs="2.76" NOx_abs="66.26" fuel_abs="53126.16" electricity_abs="0.00"/>
    </tripinfo>
    <tripinfo id="flow_0.12" depart="8640.00" departLane="A4B4_0" departPos="4.60" departSpeed="0.00" departDelay="0.00" arrival="8701.00" arrivalLane="E2D2_0" arrivalPos="85.60" arrivalSpeed="13.88" duration="61.00" routeLength="675.81" waitingTime="0.00" waitingCount="0" stopTime="0.00" timeLoss="10.61" rerouteNo="0" devices="tripinfo_flow_0.12 emissions_flow_0.12" vType="car" speedFactor="1.02" vaporized="">
        <emissions CO_abs="1867.78" CO2_abs="177671.72" HC_abs="12.83" PMx_abs="2.98" NOx_abs="71.03" fuel_abs="56685.67" electricity_abs="0.00"/>
    </tripinfo>
    <tripinfo id="flow_1.8" depart="8640.00" departLane="A2A3_0" departPos="7.60" departSpeed="0.00" departDelay="0.00" arrival="8719.00" arrivalLane="C0B0_0" arrivalPos="85.60" arrivalSpeed="9.12" duration="79.00" routeLength="661.89" waitingTime="0.00" waitingCount="0" stopTime="0.00" timeLoss="11.12" rerouteNo="0" devices="tripinfo_flow_1.8 emissions_flow_1.8" vType="bus" speedFactor="1.01" vaporized="">
        <emissions CO_abs="2490.03" CO2_abs="171678.89" HC_abs="15.41" PMx_abs="3.03" NOx_abs="68.28" fuel_abs="54772.33" electricity_abs="0.00"/>
    </tripinfo>
    <tripinfo id="flow_0.13" depart="9360.00" departLane="A4B4_0" departPos="4.60" departSpeed="0.00" departDelay="0.00" arrival="9422.00" arrivalLane="E2D2_0" arrivalPos="85.60" arrivalSpeed="12.89" duration="62.00" routeLength="675.81" waitingTime="0.00" waitingCount="0" stopTime="0.00" timeLoss="11.10" rerouteNo="0" devices="tripinfo_flow_0.13 emissions_flow_0.13" vType="car" speedFactor="0.97" vaporized="">
        <emissions CO_abs="1884.24" CO2_abs="168983.41" HC_abs="12.55" PMx_abs="2.89" NOx_abs="67.55" fuel_abs="53913.52" electricity_abs="0.00"/>
    </tripinfo>
    <tripinfo id="flow_1.9" depart="9720.00" departLane="A2A3_0" departPos="7.60" departSpeed="0.00" departDelay="0.00" arrival="9801.00" arrivalLane="C0B0_0" arrivalPos="85.60" arrivalSpeed="9.57" duration="81.00" routeLength="661.89" waitingTime="0.00" waitingCount="0" stopTime="0.00" timeLoss="12.46" rerouteNo="0" devices="tripinfo_flow_1.9 emissions_flow_1.9" vType="bus" speedFactor="0.89" vaporized="">
        <emissions CO_abs="2484.30" CO2_abs="171192.47" HC_abs="15.40" PMx_abs="3.07" NOx_abs="68.53" fuel_abs="54617.03" electricity_abs="0.00"/>
    </tripinfo>
    <tripinfo id="flow_0.14" depart="10080.00" departLane="A4B4_0" departPos="4.60" departSpeed="0.00" departDelay="0.00" arrival="10153.00" arrivalLane="E2D2_0" arrivalPos="85.60" arrivalSpeed="11.23" duration="73.00" routeLength="675.81" waitingTime="0.00" waitingCount="0" stopTime="0.00" timeLoss="11.90" rerouteNo="0" devices="tripinfo_flow_0.14 emissions_flow_0.14" vType="car" speedFactor="0.83" vaporized="">
        <emissions CO_abs="1989.53" CO2_abs="160559.01" HC_abs="12.87" PMx_abs="2.57" NOx_abs="62.28" fuel_abs="51225.72" electricity_abs="0.00"/>
    </tripinfo>
    <tripinfo id="flow_0.15" depart="10800.00" departLane="A4B4_0" departPos="4.60" departSpeed="0.00" departDelay="0.00" arrival="10868.00" arrivalLane="E2D2_0" arrivalPos="85.60" arrivalSpeed="11.58" duration="68.00" routeLength="675.81" waitingTime="0.00" waitingCount="0" stopTime="0.00" timeLoss="10.40" rerouteNo="0" devices="tripinfo_flow_0.15 emissions_flow_0.15" vType="car" speedFactor="0.87" vaporized="">
        <emissions CO_abs="1926.79" CO2_abs="164212.66" HC_abs="12.70" PMx_abs="2.67" NOx_abs="64.41" fuel_abs="52391.43" electricity_abs="0.00"/>
    </tripinfo>
    <tripinfo id="flow_1.10" depart="10800.00" departLane="A2A3_0" departPos="7.60" departSpeed="0.00" departDelay="0.00" arrival="10878.00" arrivalLane="C0B0_0" arrivalPos="85.60" arrivalSpeed="9.53" duration="78.00" routeLength="661.89" waitingTime="0.00" waitingCount="0" stopTime="0.00" timeLoss="9.84" rerouteNo="0" devices="tripinfo_flow_1.10 emissions_flow_1.10" vType="bus" speedFactor="0.92" vaporized="">
        <emissions CO_abs="2223.23" CO2_abs="156814.62" HC_abs="13.86" PMx_abs="2.77" NOx_abs="62.62" fuel_abs="50030.05" electricity_abs="0.00"/>
    </tripinfo>
    <tripinfo id="flow_0.16" depart="11520.00" departLane="A4B4_0" departPos="4.60" departSpeed="0.00" departDelay="0.00" arrival="11584.00" arrivalLane="E2D2_0" arrivalPos="85.60" arrivalSpeed="12.10" duration="64.00" routeLength="675.81" waitingTime="0.00" waitingCount="0" stopTime="0.00" timeLoss="10.34" rerouteNo="0" devices="tripinfo_flow_0.16 emissions_flow_0.16" vType="car" speedFactor="0.95" vaporized="">
        <emissions CO_abs="1870.39" CO2_abs="168876.81" HC_abs="12.42" PMx_abs="2.74" NOx_abs="66.27" fuel_abs="53879.84" electricity_abs="0.00"/>
    </tripinfo>
    <tripinfo id="flow_1.11" depart="11880.00" departLane="A2A3_0" departPos="7.60" departSpeed="0.00" departDelay="0.00" arrival="11956.00" arrivalLane="C0B0_0" arrivalPos="85.60" arrivalSpeed="9.85" duration="76.00" routeLength="661.89" waitingTime="0.00" waitingCount="0" stopTime="0.00" timeLoss="8.90" rerouteNo="0" devices="tripinfo_flow_1.11 emissions_flow_1.11" vType="bus" speedFactor="1.13" vaporized="">
        <emissions CO_abs="2172.88" CO2_abs="161490.15" HC_abs="13.72" PMx_abs="2.68" NOx_abs="63.36" fuel_abs="51522.21" electricity_abs="0.00"/>
    </tripinfo>
    <tripinfo id="flow_0.17" depart="12240.00" departLane="A4B4_0" departPos="4.60" departSpeed="0.00" departDelay="0.00" arrival="12304.00" arrivalLane="E2D2_0" arrivalPos="85.60" arrivalSpeed="12.67" duration="64.00" routeLength="675.81" waitingTime="0.00" waitingCount="0" stopTime="0.00" timeLoss="9.92" rerouteNo="0" devices="tripinfo_flow_0.17 emissions_flow_0.17" vType="car" speedFactor="0.93" vaporized="">
        <emissions CO_abs="1834.64" CO2_abs="161450.51" HC_abs="12.26" PMx_abs="2.80" NOx_abs="65.06" fuel_abs="51509.88" electricity_abs="0.00"/>
    </tripinfo>
    <tripinfo id="flow_0.18" depart="12960.00" departLane="A4B4_0" departPos="4.60" departSpeed="0.00" departDelay="0.00" arrival="13018.00" arrivalLane="E2D2_0" arrivalPos="85.60" arrivalSpeed="13.09" duration="58.00" routeLength="675.81" waitingTime="0.00" waitingCount="0" stopTime="0.00" timeLoss="7.87" rerouteNo="0" devices="tripinfo_flow_0.18 emissions_flow_0.18" vType="car" speedFactor="1.18" vaporized="">
        <emissions CO_abs="1652.36" CO2_abs="164146.75" HC_abs="11.30" PMx_abs="2.67" NOx_abs="64.67" fuel_abs="52371.08" electricity_abs="0.00"/>
    </tripinfo>
    <tripinfo id="flow_1.12" depart="12960.00" departLane="A2A3_0" departPos="7.60" departSpeed="0.00" departDelay="0.00" arrival="13036.00" arrivalLane="C0B0_0" arrivalPos="85.60" arrivalSpeed="9.71" duration="76.00" routeLength="661.89" waitingTime="0.00" waitingCount="0" stopTime="0.00" timeLoss="8.90" rerouteNo="0" devices="tripinfo_flow_1.12 emissions_flow_1.12" vType="bus" speedFactor="1.15" vaporized="">
        <emissions CO_abs="2144.46" CO2_abs="157875.11" HC_abs="13.48" PMx_abs="2.58" NOx_abs="61.45" fuel_abs="50368.96" electricity_abs="0.00"/>
    </tripinfo>
    <tripinfo id="flow_0.19" depart="13680.00" departLane="A4B4_0" departPos="4.60" departSpeed="0.00" departDelay="0.00" arrival="13739.00" arrivalLane="E2D2_0" arrivalPos="85.60" arrivalSpeed="12.61" duration="59.00" routeLength="675.81" waitingTime="0.00" waitingCount="0" stopTime="0.00" timeLoss="9.75" rerouteNo="0" devices="tripinfo_flow_0.19 emissions_flow_0.19" vType="car" speedFactor="1.01" vaporized="">
        <emissions CO_abs="1845.15" CO2_abs="172079.51" HC_abs="12.49" PMx_abs="2.96" NOx_abs="69.24" fuel_abs="54901.35" electricity_abs="0.00"/>
    </tripinfo>
    <tripinfo id="flow_1.13" depart="14040.00" departLane="A2A3_0" departPos="7.60" departSpeed="0.00" departDelay="0.00" arrival="14116.00" arrivalLane="C0B0_0" arrivalPos="85.60" arrivalSpeed="9.75" duration="76.00" routeLength="661.89" waitingTime="0.00" waitingCount="0" stopTime="0.00" timeLoss="9.19" rerouteNo="0" devices="tripinfo_flow_1.13 emissions_flow_1.13" vType="bus" speedFactor="1.17" vaporized="">
        <emissions CO_abs="2223.98" CO2_abs="165132.48" HC_abs="14.03" PMx_abs="2.72" NOx_abs="64.59" fuel_abs="52684.32" electricity_abs="0.00"/>
    </tripinfo>
    <tripinfo id="flow_0.20" depart="14400.00" departLane="A4B4_0" departPos="4.60" departSpeed="0.00" departDelay="0.00" arrival="14461.00" arrivalLane="E2D2_0" arrivalPos="85.60" arrivalSpeed="13.12" duration="61.00" routeLength="675.81" waitingTime="0.00" waitingCount="0" stopTime="0.00" timeLoss="10.10" rerouteNo="0" devices="tripinfo_flow_0.20 emissions_flow_0.20" vType="car" speedFactor="0.99" vaporized="">
        <emissions CO_abs="1879.64" CO2_abs="169346.24" HC_abs="12.59" PMx_abs="2.94" NOx_abs="68.13" fuel_abs="54029.20" electricity_abs="0.00"/>
    </tripinfo>
    <tripinfo id="flow_0.21" depart="15120.00" departLane="A4B4_0" departPos="4.60" departSpeed="0.00" departDelay="0.00" arrival="15179.00" arrivalLane="E2D2_0" arrivalPos="85.60" arrivalSpeed="13.18" duration="59.00" routeLength="675.81" waitingTime="0.00" waitingCount="0" stopTime="0.00" timeLoss="9.77" rerouteNo="0" devices="tripinfo_flow_0.21 emissions_flow_0.21" vType="car" speedFactor="1.02" vaporized="">
        <emissions CO_abs="1743.40" CO2_abs="166150.10" HC_abs="11.91" PMx_abs="2.79" NOx_abs="66.42" fuel_abs="53009.76" electricity_abs="0.00"/>
    </tripinfo>
    <tripinfo id="flow_1.14" depart="15120.00" departLane="A2A3_0" departPos="7.60" departSpeed="0.00" departDelay="0.00" arrival="15197.00" arrivalLane="C0B0_0" arrivalPos="85.60" arrivalSpeed="9.56" duration="77.00" routeLength="661.89" waitingTime="0.00" waitingCount="0" stopTime="0.00" timeLoss="8.79" rerouteNo="0" devices="tripinfo_flow_1.14 emissions_flow_1.14" vType="bus" speedFactor="0.97" vaporized="">
        <emissions CO_abs="2126.97" CO2_abs="157845.94" HC_abs="13.44" PMx_abs="2.67" NOx_abs="62.38" fuel_abs="50359.43" electricity_abs="0.00"/>
    </tripinfo>
    <tripinfo id="flow_0.22" depart="15840.00" departLane="A4B4_0" departPos="4.60" departSpeed="0.00" departDelay="0.00" arrival="15899.00" arrivalLane="E2D2_0" arrivalPos="85.60" arrivalSpeed="12.88" duration="59.00" routeLength="675.81" waitingTime="0.00" waitingCount="0" stopTime="0.00" timeLoss="9.78" rerouteNo="0" devices="tripinfo_flow_0.22 emissions_flow_0.22" vType="car" speedFactor="1.18" vaporized="">
        <emissions CO_abs="1770.82" CO2_abs="172252.53" HC_abs="12.11" PMx_abs="2.83" NOx_abs="68.37" fuel_abs="54956.94" electricity_abs="0.00"/>
    </tripinfo>
    <tripinfo id="flow_1.15" depart="16200.00" departLane="A2A3_0" departPos="7.60" departSpeed="0.00" departDelay="0.00" arrival="16278.00" arrivalLane="C0B0_0" arrivalPos="85.60" arrivalSpeed="9.95" duration="78.00" routeLength="661.89" waitingTime="0.00" waitingCount="0" stopTime="0.00" timeLoss="10.83" rerouteNo="0" devices="tripinfo_flow_1.15 emissions_flow_1.15" vType="bus" speedFactor="1.10" vaporized="">
        <emissions CO_abs="2379.50" CO2_abs="169172.89" HC_abs="14.83" PMx_abs="2.86" NOx_abs="66.46" fuel_abs="53973.15" electricity_abs="0.00"/>
    </tripinfo>
    <tripinfo id="flow_0.23" depart="16560.00" departLane="A4B4_0" departPos="4.60" departSpeed="0.00" departDelay="0.00" arrival="16626.00" arrivalLane="E2D2_0" arrivalPos="85.60" arrivalSpeed="11.40" duration="66.00" routeLength="675.81" waitingTime="0.00" waitingCount="0" stopTime="0.00" timeLoss="9.92" rerouteNo="0" devices="tripinfo_flow_0.23 emissions_flow_0.23" vType="car" speedFactor="0.90" vaporized="">
        <emissions CO_abs="1937.32" CO2_abs="165569.64" HC_abs="12.85" PMx_abs="2.88" NOx_abs="66.69" fuel_abs="52823.94" electricity_abs="0.00"/>
    </tripinfo>
    <tripinfo id="flow_0.24" depart="17280.00" departLane="A4B4_0" departPos="4.60" departSpeed="0.00" departDelay="0.00" arrival="17340.00" arrivalLane="E2D2_0" arrivalPos="85.60" arrivalSpeed="13.47" duration="60.00" routeLength="675.81" waitingTime="0.00" waitingCount="0" stopTime="0.00" timeLoss="9.99" rerouteNo="0" devices="tripinfo_flow_0.24 emissions_flow_0.24" vType="car" speedFactor="1.03" vaporized="">
        <emissions CO_abs="1806.03" CO2_abs="177622.58" HC_abs="12.36" PMx_abs="2.84" NOx_abs="69.72" fuel_abs="56670.54" electricity_abs="0.00"/>
    </tripinfo>
    <tripinfo id="flow_1.16" depart="17280.00" departLane="A2A3_0" departPos="7.60" departSpeed="0.00" departDelay="0.00" arrival="17360.00" arrivalLane="C0B0_0" arrivalPos="85.60" arrivalSpeed="9.80" duration="80.00" routeLength="661.89" waitingTime="0.00" waitingCount="0" stopTime="0.00" timeLoss="11.17" rerouteNo="0" devices="tripinfo_flow_1.16 emissions_flow_1.16" vType="bus" speedFactor="0.96" vaporized="">
        <emissions CO_abs="2544.94" CO2_abs="177565.21" HC_abs="15.79" PMx_abs="3.08" NOx_abs="70.27" fuel_abs="56650.44" electricity_abs="0.00"/>
    </tripinfo>
    <tripinfo id="flow_0.25" depart="18000.00" departLane="A4B4_0" departPos="4.60" departSpeed="0.00" departDelay="0.00" arrival="18060.00" arrivalLane="E2D2_0" arrivalPos="85.60" arrivalSpeed="13.68" duration="60.00" routeLength="675.81" waitingTime="0.00" waitingCount="0" stopTime="0.00" timeLoss="10.00" rerouteNo="0" devices="tripinfo_flow_0.25 emissions_flow_0.25" vType="car" speedFactor="1.09" vaporized="">
        <emissions CO_abs="1782.24" CO2_abs="172012.05" HC_abs="12.16" PMx_abs="2.83" NOx_abs="68.28" fuel_abs="54880.20" electricity_abs="0.00"/>
    </tripinfo>
    <tripinfo id="flow_1.17" depart="18360.00" departLane="A2A3_0" departPos="7.60" departSpeed="0.00" departDelay="0.00" arrival="18439.00" arrivalLane="C0B0_0" arrivalPos="85.60" arrivalSpeed="9.90" duration="79.00" routeLength="661.89" waitingTime="0.00" waitingCount="0" stopTime="0.00" timeLoss="10.67" rerouteNo="0" devices="tripinfo_flow_1.17 emissions_flow_1.17" vType="bus" speedFactor="1.04" vaporized="">
        <emissions CO_abs="2380.29" CO2_abs="168491.59" HC_abs="14.80" PMx_abs="2.83" NOx_abs="65.90" fuel_abs="53755.85" electricity_abs="0.00"/>
    </tripinfo>
    <tripinfo id="flow_0.26" depart="18720.00" departLane="A4B4_0" departPos="4.60" departSpeed="0.00" departDelay="0.00" arrival="18780.00" arrivalLane="E2D2_0" arrivalPos="85.60" arrivalSpeed="12.83" duration="60.00" routeLength="675.81" waitingTime="0.00" waitingCount="0" stopTime="0.00" timeLoss="10.75" rerouteNo="0" devices="tripinfo_flow_0.26 emissions_flow_0.26" vType="car" speedFactor="1.04" vaporized="">
        <emissions CO_abs="1847.52" CO2_abs="169977.95" HC_abs="12.50" PMx_abs="2.88" NOx_abs="67.84" fuel_abs="54230.95" electricity_abs="0.00"/>
    </tripinfo>
    <tripinfo id="flow_0.27" depart="19440.00" departLane="A4B4_0" departPos="4.60" departSpeed="0.00" departDelay="0.00" arrival="19499.00" arrivalLane="E2D2_0" arrivalPos="85.60" arrivalSpeed="12.69" duration="59.00" routeLength="675.81" waitingTime="0.00" waitingCount="0" stopTime="0.00" timeLoss="9.77" rerouteNo="0" devices="tripinfo_flow_0.27 emissions_flow_0.27" vType="car" speedFactor="1.09" vaporized="">
        <emissions CO_abs="1800.27" CO2_abs="169359.77" HC_abs="12.29" PMx_abs="2.91" NOx_abs="68.22" fuel_abs="54033.61" electricity_abs="0.00"/>
    </tripinfo>
    <tripinfo id="flow_1.18" depart="19440.00" departLane="A2A3_0" departPos="7.60" departSpeed="0.00" departDelay="0.00" arrival="19519.00" arrivalLane="C0B0_0" arrivalPos="85.60" arrivalSpeed="8.73" duration="79.00" routeLength="661.89" waitingTime="0.00" waitingCount="0" stopTime="0.00" timeLoss="10.99" rerouteNo="0" devices="tripinfo_flow_1.18 emissions_flow_1.18" vType="bus" speedFactor="1.00" vaporized="">
        <emissions CO_abs="2368.20" CO2_abs="164935.21" HC_abs="14.70" PMx_abs="2.89" NOx_abs="65.52" fuel_abs="52620.89" electricity_abs="0.00"/>
    </tripinfo>
    <tripinfo id="flow_0.28" depart="20160.00" departLane="A4B4_0" departPos="4.60" departSpeed="0.00" departDelay="0.00" arrival="20226.00" arrivalLane="E2D2_0" arrivalPos="85.60" arrivalSpeed="11.29" duration="66.00" routeLength="675.81" waitingTime="0.00" waitingCount="0" stopTime="0.00" timeLoss="10.23" rerouteNo="0" devices="tripinfo_flow_0.28 emissions_flow_0.28" vType="car" speedFactor="0.90" vaporized="">
        <emissions CO_abs="1931.89" CO2_abs="168982.70" HC_abs="12.73" PMx_abs="2.79" NOx_abs="66.61" fuel_abs="53913.38" electricity_abs="0.00"/>
    </tripinfo>
    <tripinfo id="flow_1.19" depart="20520.00" departLane="A2A3_0" departPos="7.60" departSpeed="0.00" departDelay="0.00" arrival="20598.00" arrivalLane="C0B0_0" arrivalPos="85.60" arrivalSpeed="9.60" duration="78.00" routeLength="661.89" waitingTime="0.00" waitingCount="0" stopTime="0.00" timeLoss="9.68" rerouteNo="0" devices="tripinfo_flow_1.19 emissions_flow_1.19" vType="bus" speedFactor="0.88" vaporized="">
        <emissions CO_abs="2288.08" CO2_abs="166469.02" HC_abs="14.37" PMx_abs="2.84" NOx_abs="65.80" fuel_abs="53110.48" electricity_abs="0.00"/>
    </tripinfo>
    <tripinfo id="flow_0.29" depart="20880.00" departLane="A4B4_0" departPos="4.60" departSpeed="0.00" departDelay="0.00" arrival="20948.00" arrivalLane="E2D2_0" arrivalPos="85.60" arrivalSpeed="11.72" duration="68.00" routeLength="675.81" waitingTime="0.00" waitingCount="0" stopTime="0.00" timeLoss="9.48" rerouteNo="0" devices="tripinfo_flow_0.29 emissions_flow_0.29" vType="car" speedFactor="0.85" vaporized="">
        <emissions CO_abs="1911.76" CO2_abs="162372.40" HC_abs="12.67" PMx_abs="2.77" NOx_abs="65.14" fuel_abs="51803.86" electricity_abs="0.00"/>
    </tripinfo>