<?xml version="1.0" encoding="UTF-8"?>

<!-- generated on 2025-11-11 15:32:59 by Eclipse SUMO sumo Version 1.24.0
<sumoConfiguration xmlns:xsi="http://www.w3.org/2001/XMLSchema-instance" xsi:noNamespaceSchemaLocation="http://sumo.dlr.de/xsd/sumoConfiguration.xsd">

    <input>
        <net-file value="D:\Rafa\TrafficCongestionPoliciesEffect-SimulationAndModulation\automate_flow\core\manhattan.net.xml"/>
        <route-files value="sumo_runs\flows\flows_sim1_day3_policy_bus_subsidy.xml"/>
    </input>

    <output>
        <emission-output value="sumo_runs\raw_xml\emissions_sim1_day3_policy_bus_subsidy.xml"/>
        <tripinfo-output value="sumo_runs\raw_xml\tripinfo_sim1_day3_policy_bus_subsidy.xml"/>
    </output>

    <report>
        <no-warnings value="true"/>
        <duration-log.statistics value="true"/>
    </report>

</sumoConfiguration>
-->

<tripinfos xmlns:xsi="http://www.w3.org/2001/XMLSchema-instance" xsi:noNamespaceSchemaLocation="http://sumo.dlr.de/xsd/tripinfo_file.xsd">
    <tripinfo id="flow_0.0" depart="0.00" departLane="A4B4_0" departPos="4.60" departSpeed="0.00" departDelay="0.00" arrival="59.00" arrivalLane="E2D2_0" arrivalPos="85.60" arrivalSpeed="13.64" duration="59.00" routeLength="675.81" waitingTime="0.00" waitingCount="0" stopTime="0.00" timeLoss="9.71" rerouteNo="0" devices="tripinfo_flow_0.0 emissions_flow_0.0" vType="car" speedFactor="1.06" vaporized="">
        <emissions CO_abs="1854.83" CO2_abs="172724.53" HC_abs="12.38" PMx_abs="2.90" NOx_abs="68.63" fuel_abs="55107.47" electricity_abs="0.00"/>
    </tripinfo>
    <tripinfo id="flow_1.0" depart="0.00" departLane="A2A3_0" departPos="7.60" departSpeed="0.00" departDelay="0.00" arrival="77.00" arrivalLane="C0B0_0" arrivalPos="85.60" arrivalSpeed="9.62" duration="77.00" routeLength="661.89" waitingTime="0.00" waitingCount="0" stopTime="0.00" timeLoss="9.38" rerouteNo="0" devices="tripinfo_flow_1.0 emissions_flow_1.0" vType="bus" speedFactor="0.94" vaporized="">
        <emissions CO_abs="2226.91" CO2_abs="158578.22" HC_abs="13.94" PMx_abs="2.83" NOx_abs="63.64" fuel_abs="50592.66" electricity_abs="0.00"/>
    </tripinfo>
    <tripinfo id="flow_0.1" depart="576.00" departLane="A4B4_0" departPos="4.60" departSpeed="0.00" departDelay="0.00" arrival="636.00" arrivalLane="E2D2_0" arrivalPos="85.60" arrivalSpeed="13.78" duration="60.00" routeLength="675.81" waitingTime="0.00" waitingCount="0" stopTime="0.00" timeLoss="10.38" rerouteNo="0" devices="tripinfo_flow_0.1 emissions_flow_0.1" vType="car" speedFactor="1.01" vaporized="">
        <emissions CO_abs="1903.66" CO2_abs="174620.26" HC_abs="12.81" PMx_abs="3.02" NOx_abs="70.23" fuel_abs="55711.93" electricity_abs="0.00"/>
    </tripinfo>
    <tripinfo id="flow_0.2" depart="1152.00" departLane="A4B4_0" departPos="4.60" departSpeed="0.00" departDelay="0.00" arrival="1211.00" arrivalLane="E2D2_0" arrivalPos="85.60" arrivalSpeed="13.49" duration="59.00" routeLength="675.81" waitingTime="0.00" waitingCount="0" stopTime="0.00" timeLoss="9.77" rerouteNo="0" devices="tripinfo_flow_0.2 emissions_flow_0.2" vType="car" speedFactor="1.08" vaporized="">
        <emissions CO_abs="1826.64" CO2_abs="170620.52" HC_abs="12.36" PMx_abs="2.94" NOx_abs="68.77" fuel_abs="54435.85" electricity_abs="0.00"/>
    </tripinfo>
    <tripinfo id="flow_0.3" depart="1728.00" departLane="A4B4_0" departPos="4.60" departSpeed="0.00" departDelay="0.00" arrival="1789.00" arrivalLane="E2D2_0" arrivalPos="85.60" arrivalSpeed="13.67" duration="61.00" routeLength="675.81" waitingTime="0.00" waitingCount="0" stopTime="0.00" timeLoss="10.51" rerouteNo="0" devices="tripinfo_flow_0.3 emissions_flow_0.3" vType="car" speedFactor="1.03" vaporized="">
        <emissions CO_abs="1893.84" CO2_abs="178136.53" HC_abs="12.89" PMx_abs="2.98" NOx_abs="71.02" fuel_abs="56834.01" electricity_abs="0.00"/>
    </tripinfo>
    <tripinfo id="flow_1.1" depart="1728.00" departLane="A2A3_0" departPos="7.60" departSpeed="0.00" departDelay="0.00" arrival="1809.00" arrivalLane="C0B0_0" arrivalPos="85.60" arrivalSpeed="9.93" duration="81.00" routeLength="661.89" waitingTime="0.00" waitingCount="0" stopTime="0.00" timeLoss="11.65" rerouteNo="0" devices="tripinfo_flow_1.1 emissions_flow_1.1" vType="bus" speedFactor="0.83" vaporized="">
        <emissions CO_abs="2335.55" CO2_abs="164291.62" HC_abs="14.55" PMx_abs="2.89" NOx_abs="65.42" fuel_abs="52415.56" electricity_abs="0.00"/>
    </tripinfo>
    <tripinfo id="flow_0.4" depart="2304.00" departLane="A4B4_0" departPos="4.60" departSpeed="0.00" departDelay="0.00" arrival="2365.00" arrivalLane="E2D2_0" arrivalPos="85.60" arrivalSpeed="13.89" duration="61.00" routeLength="675.81" waitingTime="0.00" waitingCount="0" stopTime="0.00" timeLoss="10.41" rerouteNo="0" devices="tripinfo_flow_0.4 emissions_flow_0.4" vType="car" speedFactor="1.05" vaporized="">
        <emissions CO_abs="1877.53" CO2_abs="168570.18" HC_abs="12.49" PMx_abs="2.90" NOx_abs="67.46" fuel_abs="53781.74" electricity_abs="0.00"/>
    </tripinfo>
    <tripinfo id="flow_0.5" depart="2880.00" departLane="A4B4_0" departPos="4.60" departSpeed="0.00" departDelay="0.00" arrival="2946.00" arrivalLane="E2D2_0" arrivalPos="85.60" arrivalSpeed="11.77" duration="66.00" routeLength="675.81" waitingTime="0.00" waitingCount="0" stopTime="0.00" timeLoss="9.93" rerouteNo="0" devices="tripinfo_flow_0.5 emissions_flow_0.5" vType="car" speedFactor="0.89" vaporized="">
        <emissions CO_abs="1885.43" CO2_abs="163905.67" HC_abs="12.55" PMx_abs="2.71" NOx_abs="64.90" fuel_abs="52293.39" electricity_abs="0.00"/>
    </tripinfo>
    <tripinfo id="flow_0.6" depart="3456.00" departLane="A4B4_0" departPos="4.60" departSpeed="0.00" departDelay="0.00" arrival="3520.00" arrivalLane="E2D2_0" arrivalPos="85.60" arrivalSpeed="12.19" duration="64.00" routeLength="675.81" waitingTime="0.00" waitingCount="0" stopTime="0.00" timeLoss="10.70" rerouteNo="0" devices="tripinfo_flow_0.6 emissions_flow_0.6" vType="car" speedFactor="0.94" vaporized="">
        <emissions CO_abs="1877.77" CO2_abs="167574.28" HC_abs="12.57" PMx_abs="2.80" NOx_abs="66.55" fuel_abs="53463.97" electricity_abs="0.00"/>
    </tripinfo>
    <tripinfo id="flow_1.2" depart="3456.00" departLane="A2A3_0" departPos="7.60" departSpeed="0.00" departDelay="0.00" arrival="3536.00" arrivalLane="C0B0_0" arrivalPos="85.60" arrivalSpeed="9.09" duration="80.00" routeLength="661.89" waitingTime="0.00" waitingCount="0" stopTime="0.00" timeLoss="10.61" rerouteNo="0" devices="tripinfo_flow_1.2 emissions_flow_1.2" vType="bus" speedFactor="0.86" vaporized="">
        <emissions CO_abs="2371.05" CO2_abs="165987.97" HC_abs="14.73" PMx_abs="2.89" NOx_abs="65.75" fuel_abs="52956.83" electricity_abs="0.00"/>
    </tripinfo>
    <tripinfo id="flow_0.7" depart="4032.00" departLane="A4B4_0" departPos="4.60" departSpeed="0.00" departDelay="0.00" arrival="4091.00" arrivalLane="E2D2_0" arrivalPos="85.60" arrivalSpeed="13.84" duration="59.00" routeLength="675.81" waitingTime="0.00" waitingCount="0" stopTime="0.00" timeLoss="9.41" rerouteNo="0" devices="tripinfo_flow_0.7 emissions_flow_0.7" vType="car" speedFactor="1.09" vaporized="">
        <emissions CO_abs="1821.31" CO2_abs="172838.29" HC_abs="12.38" PMx_abs="2.91" NOx_abs="68.96" fuel_abs="55143.68" electricity_abs="0.00"/>
    </tripinfo>
    <tripinfo id="flow_0.8" depart="4608.00" departLane="A4B4_0" departPos="4.60" departSpeed="0.00" departDelay="0.00" arrival="4667.00" arrivalLane="E2D2_0" arrivalPos="85.60" arrivalSpeed="12.71" duration="59.00" routeLength="675.81" waitingTime="0.00" waitingCount="0" stopTime="0.00" timeLoss="9.67" rerouteNo="0" devices="tripinfo_flow_0.8 emissions_flow_0.8" vType="car" speedFactor="1.03" vaporized="">
        <emissions CO_abs="1687.31" CO2_abs="163359.52" HC_abs="11.35" PMx_abs="2.63" NOx_abs="64.07" fuel_abs="52119.97" electricity_abs="0.00"/>
    </tripinfo>
    <tripinfo id="flow_0.9" depart="5184.00" departLane="A4B4_0" departPos="4.60" departSpeed="0.00" departDelay="0.00" arrival="5245.00" arrivalLane="E2D2_0" arrivalPos="85.60" arrivalSpeed="13.15" duration="61.00" routeLength="675.81" waitingTime="0.00" waitingCount="0" stopTime="0.00" timeLoss="10.41" rerouteNo="0" devices="tripinfo_flow_0.9 emissions_flow_0.9" vType="car" speedFactor="1.05" vaporized="">
        <emissions CO_abs="1821.25" CO2_abs="165312.20" HC_abs="12.26" PMx_abs="2.84" NOx_abs="66.21" fuel_abs="52742.27" electricity_abs="0.00"/>
    </tripinfo>
    <tripinfo id="flow_1.3" depart="5184.00" departLane="A2A3_0" departPos="7.60" departSpeed="0.00" departDelay="0.00" arrival="5262.00" arrivalLane="C0B0_0" arrivalPos="85.60" arrivalSpeed="8.75" duration="78.00" routeLength="661.89" waitingTime="0.00" waitingCount="0" stopTime="0.00" timeLoss="10.25" rerouteNo="0" devices="tripinfo_flow_1.3 emissions_flow_1.3" vType="bus" speedFactor="1.12" vaporized="">
        <emissions CO_abs="2218.69" CO2_abs="161205.20" HC_abs="13.92" PMx_abs="2.73" NOx_abs="63.57" fuel_abs="51431.14" electricity_abs="0.00"/>
    </tripinfo>
    <tripinfo id="flow_0.10" depart="5760.00" departLane="A4B4_0" departPos="4.60" departSpeed="0.00" departDelay="0.00" arrival="5821.00" arrivalLane="E2D2_0" arrivalPos="85.60" arrivalSpeed="13.73" duration="61.00" routeLength="675.81" waitingTime="0.00" waitingCount="0" stopTime="0.00" timeLoss="10.98" rerouteNo="0" devices="tripinfo_flow_0.10 emissions_flow_0.10" vType="car" speedFactor="0.99" vaporized="">
        <emissions CO_abs="1892.86" CO2_abs="170454.94" HC_abs="12.69" PMx_abs="2.96" NOx_abs="68.67" fuel_abs="54382.89" electricity_abs="0.00"/>
    </tripinfo>
    <tripinfo id="flow_0.11" depart="6336.00" departLane="A4B4_0" departPos="4.60" departSpeed="0.00" departDelay="0.00" arrival="6400.00" arrivalLane="E2D2_0" arrivalPos="85.60" arrivalSpeed="12.79" duration="64.00" routeLength="675.81" waitingTime="0.00" waitingCount="0" stopTime="0.00" timeLoss="10.23" rerouteNo="0" devices="tripinfo_flow_0.11 emissions_flow_0.11" vType="car" speedFactor="0.93" vaporized="">
        <emissions CO_abs="1888.84" CO2_abs="169837.73" HC_abs="12.66" PMx_abs="2.84" NOx_abs="67.59" fuel_abs="54186.09" electricity_abs="0.00"/>
    </tripinfo>
    <tripinfo id="flow_0.12" depart="6912.00" departLane="A4B4_0" departPos="4.60" departSpeed="0.00" departDelay="0.00" arrival="6979.00" arrivalLane="E2D2_0" arrivalPos="85.60" arrivalSpeed="12.19" duration="67.00" routeLength="675.81" waitingTime="0.00" waitingCount="0" stopTime="0.00" timeLoss="9.88" rerouteNo="0" devices="tripinfo_flow_0.12 emissions_flow_0.12" vType="car" speedFactor="0.88" vaporized="">
        <emissions CO_abs="1859.14" CO2_abs="165656.16" HC_abs="12.41" PMx_abs="2.65" NOx_abs="64.85" fuel_abs="52852.16" electricity_abs="0.00"/>
    </tripinfo>
    <tripinfo id="flow_1.4" depart="6912.00" departLane="A2A3_0" departPos="7.60" departSpeed="0.00" departDelay="0.00" arrival="6990.00" arrivalLane="C0B0_0" arrivalPos="85.60" arrivalSpeed="9.78" duration="78.00" routeLength="661.89" waitingTime="0.00" waitingCount="0" stopTime="0.00" timeLoss="9.56" rerouteNo="0" devices="tripinfo_flow_1.4 emissions_flow_1.4" vType="bus" speedFactor="0.94" vaporized="">
        <emissions CO_abs="2406.06" CO2_abs="171498.88" HC_abs="15.00" PMx_abs="2.89" NOx_abs="67.27" fuel_abs="54715.28" electricity_abs="0.00"/>
    </tripinfo>
    <tripinfo id="flow_0.13" depart="7488.00" departLane="A4B4_0" departPos="4.60" departSpeed="0.00" departDelay="0.00" arrival="7552.00" arrivalLane="E2D2_0" arrivalPos="85.60" arrivalSpeed="12.36" duration="64.00" routeLength="675.81" waitingTime="0.00" waitingCount="0" stopTime="0.00" timeLoss="10.33" rerouteNo="0" devices="tripinfo_flow_0.13 emissions_flow_0.13" vType="car" speedFactor="0.94" vaporized="">
        <emissions CO_abs="1867.23" CO2_abs="167593.30" HC_abs="12.47" PMx_abs="2.77" NOx_abs="66.29" fuel_abs="53470.13" electricity_abs="0.00"/>
    </tripinfo>
    <tripinfo id="flow_0.14" depart="8064.00" departLane="A4B4_0" departPos="4.60" departSpeed="0.00" departDelay="0.00" arrival="8124.00" arrivalLane="E2D2_0" arrivalPos="85.60" arrivalSpeed="13.13" duration="60.00" routeLength="675.81" waitingTime="0.00" waitingCount="0" stopTime="0.00" timeLoss="10.24" rerouteNo="0" devices="tripinfo_flow_0.14 emissions_flow_0.14" vType="car" speedFactor="1.16" vaporized="">
        <emissions CO_abs="1814.22" CO2_abs="169428.70" HC_abs="12.23" PMx_abs="2.82" NOx_abs="67.23" fuel_abs="54055.89" electricity_abs="0.00"/>
    </tripinfo>
    <tripinfo id="flow_0.15" depart="8640.00" departLane="A4B4_0" departPos="4.60" departSpeed="0.00" departDelay="0.00" arrival="8700.00" arrivalLane="E2D2_0" arrivalPos="85.60" arrivalSpeed="12.61" duration="60.00" routeLength="675.81" waitingTime="0.00" waitingCount="0" stopTime="0.00" timeLoss="10.30" rerouteNo="0" devices="tripinfo_flow_0.15 emissions_flow_0.15" vType="car" speedFactor="1.02" vaporized="">
        <emissions CO_abs="1841.92" CO2_abs="171922.03" HC_abs="12.54" PMx_abs="2.90" NOx_abs="68.70" fuel_abs="54851.21" electricity_abs="0.00"/>
    </tripinfo>
    <tripinfo id="flow_1.5" depart="8640.00" departLane="A2A3_0" departPos="7.60" departSpeed="0.00" departDelay="0.00" arrival="8717.00" arrivalLane="C0B0_0" arrivalPos="85.60" arrivalSpeed="8.97" duration="77.00" routeLength="661.89" waitingTime="0.00" waitingCount="0" stopTime="0.00" timeLoss="9.18" rerouteNo="0" devices="tripinfo_flow_1.5 emissions_flow_1.5" vType="bus" speedFactor="1.01" vaporized="">
        <emissions CO_abs="2185.23" CO2_abs="159148.80" HC_abs="13.72" PMx_abs="2.68" NOx_abs="62.58" fuel_abs="50775.12" electricity_abs="0.00"/>
    </tripinfo>
    <tripinfo id="flow_0.16" depart="9216.00" departLane="A4B4_0" departPos="4.60" departSpeed="0.00" departDelay="0.00" arrival="9278.00" arrivalLane="E2D2_0" arrivalPos="85.60" arrivalSpeed="13.21" duration="62.00" routeLength="675.81" waitingTime="0.00" waitingCount="0" stopTime="0.00" timeLoss="10.37" rerouteNo="0" devices="tripinfo_flow_0.16 emissions_flow_0.16" vType="car" speedFactor="0.97" vaporized="">
        <emissions CO_abs="1954.52" CO2_abs="172060.80" HC_abs="13.01" PMx_abs="3.00" NOx_abs="69.33" fuel_abs="54895.11" electricity_abs="0.00"/>
    </tripinfo>
    <tripinfo id="flow_0.17" depart="9792.00" departLane="A4B4_0" departPos="4.60" departSpeed="0.00" departDelay="0.00" arrival="9858.00" arrivalLane="E2D2_0" arrivalPos="85.60" arrivalSpeed="11.84" duration="66.00" routeLength="675.81" waitingTime="0.00" waitingCount="0" stopTime="0.00" timeLoss="10.56" rerouteNo="0" devices="tripinfo_flow_0.17 emissions_flow_0.17" vType="car" speedFactor="0.89" vaporized="">
        <emissions CO_abs="1888.39" CO2_abs="161135.96" HC_abs="12.43" PMx_abs="2.70" NOx_abs="63.89" fuel_abs="51409.67" electricity_abs="0.00"/>
    </tripinfo>
    <tripinfo id="flow_0.18" depart="10368.00" departLane="A4B4_0" departPos="4.60" departSpeed="0.00" departDelay="0.00" arrival="10438.00" arrivalLane="E2D2_0" arrivalPos="85.60" arrivalSpeed="11.02" duration="70.00" routeLength="675.81" waitingTime="0.00" waitingCount="0" stopTime="0.00" timeLoss="9.30" rerouteNo="0" devices="tripinfo_flow_0.18 emissions_flow_0.18" vType="car" speedFactor="0.83" vaporized="">
        <emissions CO_abs="1977.29" CO2_abs="169097.03" HC_abs="13.05" PMx_abs="2.70" NOx_abs="66.03" fuel_abs="53949.81" electricity_abs="0.00"/>
    </tripinfo>
    <tripinfo id="flow_1.6" depart="10368.00" departLane="A2A3_0" departPos="7.60" departSpeed="0.00" departDelay="0.00" arrival="10446.00" arrivalLane="C0B0_0" arrivalPos="85.60" arrivalSpeed="9.31" duration="78.00" routeLength="661.89" waitingTime="0.00" waitingCount="0" stopTime="0.00" timeLoss="9.71" rerouteNo="0" devices="tripinfo_flow_1.6 emissions_flow_1.6" vType="bus" speedFactor="0.87" vaporized="">
        <emissions CO_abs="2295.42" CO2_abs="168450.60" HC_abs="14.42" PMx_abs="2.77" NOx_abs="65.69" fuel_abs="53742.96" electricity_abs="0.00"/>
    </tripinfo>
    <tripinfo id="flow_0.19" depart="10944.00" departLane="A4B4_0" departPos="4.60" departSpeed="0.00" departDelay="0.00" arrival="11008.00" arrivalLane="E2D2_0" arrivalPos="85.60" arrivalSpeed="11.45" duration="64.00" routeLength="675.81" waitingTime="0.00" waitingCount="0" stopTime="0.00" timeLoss="9.60" rerouteNo="0" devices="tripinfo_flow_0.19 emissions_flow_0.19" vType="car" speedFactor="0.92" vaporized="">
        <emissions CO_abs="1882.68" CO2_abs="164318.37" HC_abs="12.49" PMx_abs="2.75" NOx_abs="65.16" fuel_abs="52425.13" electricity_abs="0.00"/>
    </tripinfo>
    <tripinfo id="flow_0.20" depart="11520.00" departLane="A4B4_0" departPos="4.60" departSpeed="0.00" departDelay="0.00" arrival="11583.00" arrivalLane="E2D2_0" arrivalPos="85.60" arrivalSpeed="12.48" duration="63.00" routeLength="675.81" waitingTime="0.00" waitingCount="0" stopTime="0.00" timeLoss="10.69" rerouteNo="0" devices="tripinfo_flow_0.20 emissions_flow_0.20" vType="car" speedFactor="0.95" vaporized="">
        <emissions CO_abs="1781.91" CO2_abs="159785.07" HC_abs="11.87" PMx_abs="2.72" NOx_abs="63.87" fuel_abs="50978.79" electricity_abs="0.00"/>
    </tripinfo>
    <tripinfo id="flow_0.21" depart="12096.00" departLane="A4B4_0" departPos="4.60" departSpeed="0.00" departDelay="0.00" arrival="12155.00" arrivalLane="E2D2_0" arrivalPos="85.60" arrivalSpeed="13.18" duration="59.00" routeLength="675.81" waitingTime="0.00" waitingCount="0" stopTime="0.00" timeLoss="8.83" rerouteNo="0" devices="tripinfo_flow_0.21 emissions_flow_0.21" vType="car" speedFactor="1.13" vaporized="">
        <emissions CO_abs="1827.86" CO2_abs="170144.16" HC_abs="12.43" PMx_abs="2.94" NOx_abs="68.64" fuel_abs="54283.80" electricity_abs="0.00"/>
    </tripinfo>
    <tripinfo id="flow_1.7" depart="12096.00" departLane="A2A3_0" departPos="7.60" departSpeed="0.00" departDelay="0.00" arrival="12173.00" arrivalLane="C0B0_0" arrivalPos="85.60" arrivalSpeed="9.97" duration="77.00" routeLength="661.89" waitingTime="0.00" waitingCount="0" stopTime="0.00" timeLoss="8.94" rerouteNo="0" devices="tripinfo_flow_1.7 emissions_flow_1.7" vType="bus" speedFactor="0.93" vaporized="">
        <emissions CO_abs="2244.35" CO2_abs="164753.02" HC_abs="14.12" PMx_abs="2.76" NOx_abs="64.69" fuel_abs="52563.16" electricity_abs="0.00"/>
    </tripinfo>
    <tripinfo id="flow_0.22" depart="12672.00" departLane="A4B4_0" departPos="4.60" departSpeed="0.00" departDelay="0.00" arrival="12731.00" arrivalLane="E2D2_0" arrivalPos="85.60" arrivalSpeed="12.88" duration="59.00" routeLength="675.81" waitingTime="0.00" waitingCount="0" stopTime="0.00" timeLoss="9.17" rerouteNo="0" devices="tripinfo_flow_0.22 emissions_flow_0.22" vType="car" speedFactor="1.18" vaporized="">
        <emissions CO_abs="1735.41" CO2_abs="165959.83" HC_abs="11.74" PMx_abs="2.73" NOx_abs="65.74" fuel_abs="52949.28" electricity_abs="0.00"/>
    </tripinfo>
    <tripinfo id="flow_0.23" depart="13248.00" departLane="A4B4_0" departPos="4.60" departSpeed="0.00" departDelay="0.00" arrival="13307.00" arrivalLane="E2D2_0" arrivalPos="85.60" arrivalSpeed="13.89" duration="59.00" routeLength="675.81" waitingTime="0.00" waitingCount="0" stopTime="0.00" timeLoss="9.69" rerouteNo="0" devices="tripinfo_flow_0.23 emissions_flow_0.23" vType="car" speedFactor="1.15" vaporized="">
        <emissions CO_abs="1746.54" CO2_abs="165956.96" HC_abs="11.80" PMx_abs="2.76" NOx_abs="66.01" fuel_abs="52948.28" electricity_abs="0.00"/>
    </tripinfo>
    <tripinfo id="flow_0.24" depart="13824.00" departLane="A4B4_0" departPos="4.60" departSpeed="0.00" departDelay="0.00" arrival="13884.00" arrivalLane="E2D2_0" arrivalPos="85.60" arrivalSpeed="12.64" duration="60.00" routeLength="675.81" waitingTime="0.00" waitingCount="0" stopTime="0.00" timeLoss="10.36" rerouteNo="0" devices="tripinfo_flow_0.24 emissions_flow_0.24" vType="car" speedFactor="1.01" vaporized="">
        <emissions CO_abs="1788.93" CO2_abs="172473.84" HC_abs="12.14" PMx_abs="2.77" NOx_abs="67.71" fuel_abs="55027.76" electricity_abs="0.00"/>
    </tripinfo>
    <tripinfo id="flow_1.8" depart="13824.00" departLane="A2A3_0" departPos="7.60" departSpeed="0.00" departDelay="0.00" arrival="13902.00" arrivalLane="C0B0_0" arrivalPos="85.60" arrivalSpeed="9.12" duration="78.00" routeLength="661.89" waitingTime="0.00" waitingCount="0" stopTime="0.00" timeLoss="11.06" rerouteNo="0" devices="tripinfo_flow_1.8 emissions_flow_1.8" vType="bus" speedFactor="1.17" vaporized="">
        <emissions CO_abs="2351.41" CO2_abs="164922.08" HC_abs="14.63" PMx_abs="2.91" NOx_abs="65.72" fuel_abs="52616.68" electricity_abs="0.00"/>
    </tripinfo>
    <tripinfo id="flow_0.25" depart="14400.00" departLane="A4B4_0" departPos="4.60" departSpeed="0.00" departDelay="0.00" arrival="14460.00" arrivalLane="E2D2_0" arrivalPos="85.60" arrivalSpeed="13.31" duration="60.00" routeLength="675.81" waitingTime="0.00" waitingCount="0" stopTime="0.00" timeLoss="9.83" rerouteNo="0" devices="tripinfo_flow_0.25 emissions_flow_0.25" vType="car" speedFactor="0.99" vaporized="">
        <emissions CO_abs="1767.69" CO2_abs="171157.07" HC_abs="12.04" PMx_abs="2.80" NOx_abs="67.59" fuel_abs="54607.55" electricity_abs="0.00"/>
    </tripinfo>
    <tripinfo id="flow_0.26" depart="14976.00" departLane="A4B4_0" departPos="4.60" departSpeed="0.00" departDelay="0.00" arrival="15036.00" arrivalLane="E2D2_0" arrivalPos="85.60" arrivalSpeed="12.99" duration="60.00" routeLength="675.81" waitingTime="0.00" waitingCount="0" stopTime="0.00" timeLoss="10.20" rerouteNo="0" devices="tripinfo_flow_0.26 emissions_flow_0.26" vType="car" speedFactor="1.02" vaporized="">
        <emissions CO_abs="1874.44" CO2_abs="172928.11" HC_abs="12.71" PMx_abs="2.93" NOx_abs="69.24" fuel_abs="55172.10" electricity_abs="0.00"/>
    </tripinfo>
    <tripinfo id="flow_0.27" depart="15552.00" departLane="A4B4_0" departPos="4.60" departSpeed="0.00" departDelay="0.00" arrival="15614.00" arrivalLane="E2D2_0" arrivalPos="85.60" arrivalSpeed="12.88" duration="62.00" routeLength="675.81" waitingTime="0.00" waitingCount="0" stopTime="0.00" timeLoss="10.91" rerouteNo="0" devices="tripinfo_flow_0.27 emissions_flow_0.27" vType="car" speedFactor="0.97" vaporized="">
        <emissions CO_abs="1959.23" CO2_abs="173968.70" HC_abs="13.06" PMx_abs="3.01" NOx_abs="69.91" fuel_abs="55503.91" electricity_abs="0.00"/>
    </tripinfo>
    <tripinfo id="flow_1.9" depart="15552.00" departLane="A2A3_0" departPos="7.60" departSpeed="0.00" departDelay="0.00" arrival="15628.00" arrivalLane="C0B0_0" arrivalPos="85.60" arrivalSpeed="8.92" duration="76.00" routeLength="661.89" waitingTime="0.00" waitingCount="0" stopTime="0.00" timeLoss="9.10" rerouteNo="0" devices="tripinfo_flow_1.9 emissions_flow_1.9" vType="bus" speedFactor="1.18" vaporized="">
        <emissions CO_abs="2182.84" CO2_abs="158509.12" HC_abs="13.71" PMx_abs="2.72" NOx_abs="62.79" fuel_abs="50570.90" electricity_abs="0.00"/>
    </tripinfo>
    <tripinfo id="flow_0.28" depart="16128.00" departLane="A4B4_0" departPos="4.60" departSpeed="0.00" departDelay="0.00" arrival="16188.00" arrivalLane="E2D2_0" arrivalPos="85.60" arrivalSpeed="13.80" duration="60.00" routeLength="675.81" waitingTime="0.00" waitingCount="0" stopTime="0.00" timeLoss="9.95" rerouteNo="0" devices="tripinfo_flow_0.28 emissions_flow_0.28" vType="car" speedFactor="1.10" vaporized="">
        <emissions CO_abs="1986.39" CO2_abs="177631.75" HC_abs="13.35" PMx_abs="3.12" NOx_abs="71.75" fuel_abs="56672.54" electricity_abs="0.00"/>
    </tripinfo>
    <tripinfo id="flow_0.29" depart="16704.00" departLane="A4B4_0" departPos="4.60" departSpeed="0.00" departDelay="0.00" arrival="16769.00" arrivalLane="E2D2_0" arrivalPos="85.60" arrivalSpeed="12.12" duration="65.00" routeLength="675.81" waitingTime="0.00" waitingCount="0" stopTime="0.00" timeLoss="9.62" rerouteNo="0" devices="tripinfo_flow_0.29 emissions_flow_0.29" vType="car" speedFactor="0.90" vaporized="">
        <emissions CO_abs="1767.39" CO2_abs="159433.27" HC_abs="11.92" PMx_abs="2.64" NOx_abs="63.36" fuel_abs="50866.56" electricity_abs="0.00"/>
    </tripinfo>
    <tripinfo id="flow_0.30" depart="17280.00" departLane="A4B4_0" departPos="4.60" departSpeed="0.00" departDelay="0.00" arrival="17339.00" arrivalLane="E2D2_0" arrivalPos="85.60" arrivalSpeed="13.70" duration="59.00" routeLength="675.81" waitingTime="0.00" waitingCount="0" stopTime="0.00" timeLoss="9.57" rerouteNo="0" devices="tripinfo_flow_0.30 emissions_flow_0.30" vType="car" speedFactor="1.03" vaporized="">
        <emissions CO_abs="1878.74" CO2_abs="168417.38" HC_abs="12.57" PMx_abs="2.97" NOx_abs="67.88" fuel_abs="53732.86" electricity_abs="0.00"/>
    </tripinfo>
    <tripinfo id="flow_1.10" depart="17280.00" departLane="A2A3_0" departPos="7.60" departSpeed="0.00" departDelay="0.00" arrival="17358.00" arrivalLane="C0B0_0" arrivalPos="85.60" arrivalSpeed="9.25" duration="78.00" routeLength="661.89" waitingTime="0.00" waitingCount="0" stopTime="0.00" timeLoss="9.79" rerouteNo="0" devices="tripinfo_flow_1.10 emissions_flow_1.10" vType="bus" speedFactor="0.96" vaporized="">
        <emissions CO_abs="2254.41" CO2_abs="158289.94" HC_abs="14.04" PMx_abs="2.82" NOx_abs="63.34" fuel_abs="50500.69" electricity_abs="0.00"/>
    </tripinfo>
    <tripinfo id="flow_0.31" depart="17856.00" departLane="A4B4_0" departPos="4.60" departSpeed="0.00" departDelay="0.00" arrival="17915.00" arrivalLane="E2D2_0" arrivalPos="85.60" arrivalSpeed="12.97" duration="59.00" routeLength="675.81" waitingTime="0.00" waitingCount="0" stopTime="0.00" timeLoss="9.89" rerouteNo="0" devices="tripinfo_flow_0.31 emissions_flow_0.31" vType="car" speedFactor="1.09" vaporized="">
        <emissions CO_abs="1709.67" CO2_abs="167034.42" HC_abs="11.75" PMx_abs="2.73" NOx_abs="66.25" fuel_abs="53292.11" electricity_abs="0.00"/>
    </tripinfo>
    <tripinfo id="flow_0.32" depart="18432.00" departLane="A4B4_0" departPos="4.60" departSpeed="0.00" departDelay="0.00" arrival="18491.00" arrivalLane="E2D2_0" arrivalPos="85.60" arrivalSpeed="13.70" duration="59.00" routeLength="675.81" waitingTime="0.00" waitingCount="0" stopTime="0.00" timeLoss="9.89" rerouteNo="0" devices="tripinfo_flow_0.32 emissions_flow_0.32" vType="car" speedFactor="1.04" vaporized="">
        <emissions CO_abs="1785.91" CO2_abs="169625.00" HC_abs="12.02" PMx_abs="2.80" NOx_abs="66.87" fuel_abs="54118.78" electricity_abs="0.00"/>
    </tripinfo>
    <tripinfo id="flow_0.33" depart="19008.00" departLane="A4B4_0" departPos="4.60" departSpeed="0.00" departDelay="0.00" arrival="19068.00" arrivalLane="E2D2_0" arrivalPos="85.60" arrivalSpeed="12.77" duration="60.00" routeLength="675.81" waitingTime="0.00" waitingCount="0" stopTime="0.00" timeLoss="10.10" rerouteNo="0" devices="tripinfo_flow_0.33 emissions_flow_0.33" vType="car" speedFactor="1.04" vaporized="">
        <emissions CO_abs="1830.48" CO2_abs="167817.68" HC_abs="12.30" PMx_abs="2.85" NOx_abs="67.06" fuel_abs="53541.72" electricity_abs="0.00"/>
    </tripinfo>
    <tripinfo id="flow_1.11" depart="19008.00" departLane="A2A3_0" departPos="7.60" departSpeed="0.00" departDelay="0.00" arrival="19085.00" arrivalLane="C0B0_0" arrivalPos="85.60" arrivalSpeed="9.85" duration="77.00" routeLength="661.89" waitingTime="0.00" waitingCount="0" stopTime="0.00" timeLoss="9.19" rerouteNo="0" devices="tripinfo_flow_1.11 emissions_flow_1.11" vType="bus" speedFactor="1.09" vaporized="">
        <emissions CO_abs="2225.09" CO2_abs="164905.82" HC_abs="14.03" PMx_abs="2.72" NOx_abs="64.48" fuel_abs="52612.01" electricity_abs="0.00"/>
    </tripinfo>
    <tripinfo id="flow_0.34" depart="19584.00" departLane="A4B4_0" departPos="4.60" departSpeed="0.00" departDelay="0.00" arrival="19646.00" arrivalLane="E2D2_0" arrivalPos="85.60" arrivalSpeed="13.39" duration="62.00" routeLength="675.81" waitingTime="0.00" waitingCount="0" stopTime="0.00" timeLoss="11.36" rerouteNo="0" devices="tripinfo_flow_0.34 emissions_flow_0.34" vType="car" speedFactor="1.00" vaporized="">
        <emissions CO_abs="1959.11" CO2_abs="173936.36" HC_abs="13.04" PMx_abs="3.01" NOx_abs="69.82" fuel_abs="55493.66" electricity_abs="0.00"/>
    </tripinfo>
    <tripinfo id="flow_0.35" depart="20160.00" departLane="A4B4_0" departPos="4.60" departSpeed="0.00" departDelay="0.00" arrival="20225.00" arrivalLane="E2D2_0" arrivalPos="85.60" arrivalSpeed="11.34" duration="65.00" routeLength="675.81" waitingTime="0.00" waitingCount="0" stopTime="0.00" timeLoss="10.16" rerouteNo="0" devices="tripinfo_flow_0.35 emissions_flow_0.35" vType="car" speedFactor="0.90" vaporized="">
        <emissions CO_abs="1818.42" CO2_abs="162206.38" HC_abs="12.19" PMx_abs="2.67" NOx_abs="64.21" fuel_abs="51751.35" electricity_abs="0.00"/>
    </tripinfo>
    <tripinfo id="flow_0.36" depart="20736.00" departLane="A4B4_0" departPos="4.60" departSpeed="0.00" departDelay="0.00" arrival="20803.00" arrivalLane="E2D2_0" arrivalPos="85.60" arrivalSpeed="11.33" duration="67.00" routeLength="675.81" waitingTime="0.00" waitingCount="0" stopTime="0.00" timeLoss="9.55" rerouteNo="0" devices="tripinfo_flow_0.36 emissions_flow_0.36" vType="car" speedFactor="0.88" vaporized="">
        <emissions CO_abs="1739.16" CO2_abs="161436.20" HC_abs="11.76" PMx_abs="2.53" NOx_abs="62.99" fuel_abs="51505.97" electricity_abs="0.00"/>
    </tripinfo>
    <tripinfo id="flow_1.12" depart="20736.00" departLane="A2A3_0" departPos="7.60" departSpeed="0.00" departDelay="0.00" arrival="20816.00" arrivalLane="C0B0_0" arrivalPos="85.60" arrivalSpeed="9.46" duration="80.00" routeLength="661.89" waitingTime="0.00" waitingCount="0" stopTime="0.00" timeLoss="10.64" rerouteNo="0" devices="tripinfo_flow_1.12 emissions_flow_1.12" vType="bus" speedFactor="0.85" vaporized="">
        <emissions CO_abs="2353.87" CO2_abs="164647.96" HC_abs="14.63" PMx_abs="2.88" NOx_abs="65.36" fuel_abs="52529.28" electricity_abs="0.00"/>
    </tripinfo>