<?xml version="1.0" encoding="UTF-8"?>

<!-- generated on 2025-11-11 15:32:50 by Eclipse SUMO sumo Version 1.24.0
<sumoConfiguration xmlns:xsi="http://www.w3.org/2001/XMLSchema-instance" xsi:noNamespaceSchemaLocation="http://sumo.dlr.de/xsd/sumoConfiguration.xsd">

    <input>
        <net-file value="D:\Rafa\TrafficCongestionPoliciesEffect-SimulationAndModulation\automate_flow\core\manhattan.net.xml"/>
        <route-files value="sumo_runs\flows\flows_sim1_day2_policy_bus_subsidy.xml"/>
    </input>

    <output>
        <emission-output value="sumo_runs\raw_xml\emissions_sim1_day2_policy_bus_subsidy.xml"/>
        <tripinfo-output value="sumo_runs\raw_xml\tripinfo_sim1_day2_policy_bus_subsidy.xml"/>
    </output>

    <report>
        <no-warnings value="true"/>
        <duration-log.statistics value="true"/>
    </report>

</sumoConfiguration>
-->

<tripinfos xmlns:xsi="http://www.w3.org/2001/XMLSchema-instance" xsi:noNamespaceSchemaLocation="http://sumo.dlr.de/xsd/tripinfo_file.xsd">
    <tripinfo id="flow_0.0" depart="0.00" departLane="A4B4_0" departPos="4.60" departSpeed="0.00" departDelay="0.00" arrival="59.00" arrivalLane="E2D2_0" arrivalPos="85.60" arrivalSpeed="13.64" duration="59.00" routeLength="675.81" waitingTime="0.00" waitingCount="0" stopTime="0.00" timeLoss="9.71" rerouteNo="0" devices="tripinfo_flow_0.0 emissions_flow_0.0" vType="car" speedFactor="1.06" vaporized="">
        <emissions CO_abs="1854.83" CO2_abs="172724.53" HC_abs="12.38" PMx_abs="2.90" NOx_abs="68.63" fuel_abs="55107.47" electricity_abs="0.00"/>
    </tripinfo>
    <tripinfo id="flow_1.0" depart="0.00" departLane="A2A3_0" departPos="7.60" departSpeed="0.00" departDelay="0.00" arrival="77.00" arrivalLane="C0B0_0" arrivalPos="85.60" arrivalSpeed="9.62" duration="77.00" routeLength="661.89" waitingTime="0.00" waitingCount="0" stopTime="0.00" timeLoss="9.38" rerouteNo="0" devices="tripinfo_flow_1.0 emissions_flow_1.0" vType="bus" speedFactor="0.94" vaporized="">
        <emissions CO_abs="2226.91" CO2_abs="158578.22" HC_abs="13.94" PMx_abs="2.83" NOx_abs="63.64" fuel_abs="50592.66" electricity_abs="0.00"/>
    </tripinfo>
    <tripinfo id="flow_0.1" depart="500.00" departLane="A4B4_0" departPos="4.60" departSpeed="0.00" departDelay="0.58" arrival="560.00" arrivalLane="E2D2_0" arrivalPos="85.60" arrivalSpeed="13.78" duration="60.00" routeLength="675.81" waitingTime="0.00" waitingCount="0" stopTime="0.00" timeLoss="10.38" rerouteNo="0" devices="tripinfo_flow_0.1 emissions_flow_0.1" vType="car" speedFactor="1.01" vaporized="">
        <emissions CO_abs="1903.66" CO2_abs="174620.26" HC_abs="12.81" PMx_abs="3.02" NOx_abs="70.23" fuel_abs="55711.93" electricity_abs="0.00"/>
    </tripinfo>
    <tripinfo id="flow_0.2" depart="999.00" departLane="A4B4_0" departPos="4.60" departSpeed="0.00" departDelay="0.16" arrival="1058.00" arrivalLane="E2D2_0" arrivalPos="85.60" arrivalSpeed="13.49" duration="59.00" routeLength="675.81" waitingTime="0.00" waitingCount="0" stopTime="0.00" timeLoss="9.77" rerouteNo="0" devices="tripinfo_flow_0.2 emissions_flow_0.2" vType="car" speedFactor="1.08" vaporized="">
        <emissions CO_abs="1826.64" CO2_abs="170620.52" HC_abs="12.36" PMx_abs="2.94" NOx_abs="68.77" fuel_abs="54435.85" electricity_abs="0.00"/>
    </tripinfo>
    <tripinfo id="flow_0.3" depart="1499.00" departLane="A4B4_0" departPos="4.60" departSpeed="0.00" departDelay="0.74" arrival="1560.00" arrivalLane="E2D2_0" arrivalPos="85.60" arrivalSpeed="13.67" duration="61.00" routeLength="675.81" waitingTime="0.00" waitingCount="0" stopTime="0.00" timeLoss="10.51" rerouteNo="0" devices="tripinfo_flow_0.3 emissions_flow_0.3" vType="car" speedFactor="1.03" vaporized="">
        <emissions CO_abs="1893.84" CO2_abs="178136.53" HC_abs="12.89" PMx_abs="2.98" NOx_abs="71.02" fuel_abs="56834.01" electricity_abs="0.00"/>
    </tripinfo>
    <tripinfo id="flow_0.4" depart="1998.00" departLane="A4B4_0" departPos="4.60" departSpeed="0.00" departDelay="0.32" arrival="2069.00" arrivalLane="E2D2_0" arrivalPos="85.60" arrivalSpeed="10.40" duration="71.00" routeLength="675.81" waitingTime="0.00" waitingCount="0" stopTime="0.00" timeLoss="11.02" rerouteNo="0" devices="tripinfo_flow_0.4 emissions_flow_0.4" vType="car" speedFactor="0.83" vaporized="">
        <emissions CO_abs="1930.30" CO2_abs="156768.11" HC_abs="12.55" PMx_abs="2.62" NOx_abs="61.96" fuel_abs="50015.96" electricity_abs="0.00"/>
    </tripinfo>
    <tripinfo id="flow_0.5" depart="2498.00" departLane="A4B4_0" departPos="4.60" departSpeed="0.00" departDelay="0.90" arrival="2558.00" arrivalLane="E2D2_0" arrivalPos="85.60" arrivalSpeed="13.36" duration="60.00" routeLength="675.81" waitingTime="0.00" waitingCount="0" stopTime="0.00" timeLoss="10.89" rerouteNo="0" devices="tripinfo_flow_0.5 emissions_flow_0.5" vType="car" speedFactor="1.05" vaporized="">
        <emissions CO_abs="1881.64" CO2_abs="170503.68" HC_abs="12.67" PMx_abs="2.94" NOx_abs="68.71" fuel_abs="54398.42" electricity_abs="0.00"/>
    </tripinfo>
    <tripinfo id="flow_0.6" depart="2997.00" departLane="A4B4_0" departPos="4.60" departSpeed="0.00" departDelay="0.48" arrival="3064.00" arrivalLane="E2D2_0" arrivalPos="85.60" arrivalSpeed="11.47" duration="67.00" routeLength="675.81" waitingTime="0.00" waitingCount="0" stopTime="0.00" timeLoss="11.04" rerouteNo="0" devices="tripinfo_flow_0.6 emissions_flow_0.6" vType="car" speedFactor="0.89" vaporized="">
        <emissions CO_abs="1904.53" CO2_abs="161136.63" HC_abs="12.55" PMx_abs="2.68" NOx_abs="63.69" fuel_abs="51409.90" electricity_abs="0.00"/>
    </tripinfo>
    <tripinfo id="flow_1.1" depart="3200.00" departLane="A2A3_0" departPos="7.60" departSpeed="0.00" departDelay="0.00" arrival="3279.00" arrivalLane="C0B0_0" arrivalPos="85.60" arrivalSpeed="9.93" duration="79.00" routeLength="661.89" waitingTime="0.00" waitingCount="0" stopTime="0.00" timeLoss="10.49" rerouteNo="0" devices="tripinfo_flow_1.1 emissions_flow_1.1" vType="bus" speedFactor="0.94" vaporized="">
        <emissions CO_abs="2307.70" CO2_abs="163779.68" HC_abs="14.40" PMx_abs="2.84" NOx_abs="64.89" fuel_abs="52252.34" electricity_abs="0.00"/>
    </tripinfo>
    <tripinfo id="flow_0.7" depart="3496.00" departLane="A4B4_0" departPos="4.60" departSpeed="0.00" departDelay="0.06" arrival="3564.00" arrivalLane="E2D2_0" arrivalPos="85.60" arrivalSpeed="11.48" duration="68.00" routeLength="675.81" waitingTime="0.00" waitingCount="0" stopTime="0.00" timeLoss="9.73" rerouteNo="0" devices="tripinfo_flow_0.7 emissions_flow_0.7" vType="car" speedFactor="0.86" vaporized="">
        <emissions CO_abs="1951.11" CO2_abs="168271.46" HC_abs="12.92" PMx_abs="2.75" NOx_abs="66.27" fuel_abs="53686.33" electricity_abs="0.00"/>
    </tripinfo>
    <tripinfo id="flow_0.8" depart="3996.00" departLane="A4B4_0" departPos="4.60" departSpeed="0.00" departDelay="0.64" arrival="4055.00" arrivalLane="E2D2_0" arrivalPos="85.60" arrivalSpeed="13.30" duration="59.00" routeLength="675.81" waitingTime="0.00" waitingCount="0" stopTime="0.00" timeLoss="9.70" rerouteNo="0" devices="tripinfo_flow_0.8 emissions_flow_0.8" vType="car" speedFactor="1.09" vaporized="">
        <emissions CO_abs="1735.31" CO2_abs="165590.19" HC_abs="11.69" PMx_abs="2.75" NOx_abs="65.73" fuel_abs="52831.37" electricity_abs="0.00"/>
    </tripinfo>
    <tripinfo id="flow_0.9" depart="4495.00" departLane="A4B4_0" departPos="4.60" departSpeed="0.00" departDelay="0.22" arrival="4556.00" arrivalLane="E2D2_0" arrivalPos="85.60" arrivalSpeed="12.98" duration="61.00" routeLength="675.81" waitingTime="0.00" waitingCount="0" stopTime="0.00" timeLoss="10.87" rerouteNo="0" devices="tripinfo_flow_0.9 emissions_flow_0.9" vType="car" speedFactor="1.03" vaporized="">
        <emissions CO_abs="1902.88" CO2_abs="169583.97" HC_abs="12.70" PMx_abs="2.93" NOx_abs="68.02" fuel_abs="54105.07" electricity_abs="0.00"/>
    </tripinfo>
    <tripinfo id="flow_0.10" depart="4995.00" departLane="A4B4_0" departPos="4.60" departSpeed="0.00" departDelay="0.80" arrival="5055.00" arrivalLane="E2D2_0" arrivalPos="85.60" arrivalSpeed="12.91" duration="60.00" routeLength="675.81" waitingTime="0.00" waitingCount="0" stopTime="0.00" timeLoss="10.00" rerouteNo="0" devices="tripinfo_flow_0.10 emissions_flow_0.10" vType="car" speedFactor="1.05" vaporized="">
        <emissions CO_abs="1886.57" CO2_abs="174680.54" HC_abs="12.86" PMx_abs="3.04" NOx_abs="70.81" fuel_abs="55730.97" electricity_abs="0.00"/>
    </tripinfo>
    <tripinfo id="flow_0.11" depart="5494.00" departLane="A4B4_0" departPos="4.60" departSpeed="0.00" departDelay="0.38" arrival="5553.00" arrivalLane="E2D2_0" arrivalPos="85.60" arrivalSpeed="13.82" duration="59.00" routeLength="675.81" waitingTime="0.00" waitingCount="0" stopTime="0.00" timeLoss="9.19" rerouteNo="0" devices="tripinfo_flow_0.11 emissions_flow_0.11" vType="car" speedFactor="1.12" vaporized="">
        <emissions CO_abs="1713.68" CO2_abs="169213.71" HC_abs="11.70" PMx_abs="2.71" NOx_abs="66.56" fuel_abs="53987.67" electricity_abs="0.00"/>
    </tripinfo>
    <tripinfo id="flow_0.12" depart="5994.00" departLane="A4B4_0" departPos="4.60" departSpeed="0.00" departDelay="0.96" arrival="6055.00" arrivalLane="E2D2_0" arrivalPos="85.60" arrivalSpeed="13.75" duration="61.00" routeLength="675.81" waitingTime="0.00" waitingCount="0" stopTime="0.00" timeLoss="9.92" rerouteNo="0" devices="tripinfo_flow_0.12 emissions_flow_0.12" vType="car" speedFactor="0.99" vaporized="">
        <emissions CO_abs="1830.46" CO2_abs="174528.04" HC_abs="12.42" PMx_abs="2.89" NOx_abs="69.21" fuel_abs="55682.93" electricity_abs="0.00"/>
    </tripinfo>
    <tripinfo id="flow_1.2" depart="6400.00" departLane="A2A3_0" departPos="7.60" departSpeed="0.00" departDelay="0.00" arrival="6478.00" arrivalLane="C0B0_0" arrivalPos="85.60" arrivalSpeed="9.36" duration="78.00" routeLength="661.89" waitingTime="0.00" waitingCount="0" stopTime="0.00" timeLoss="9.59" rerouteNo="0" devices="tripinfo_flow_1.2 emissions_flow_1.2" vType="bus" speedFactor="0.93" vaporized="">
        <emissions CO_abs="2134.19" CO2_abs="151952.29" HC_abs="13.32" PMx_abs="2.61" NOx_abs="60.01" fuel_abs="48478.99" electricity_abs="0.00"/>
    </tripinfo>
    <tripinfo id="flow_0.13" depart="6493.00" departLane="A4B4_0" departPos="4.60" departSpeed="0.00" departDelay="0.54" arrival="6561.00" arrivalLane="E2D2_0" arrivalPos="85.60" arrivalSpeed="11.55" duration="68.00" routeLength="675.81" waitingTime="0.00" waitingCount="0" stopTime="0.00" timeLoss="11.02" rerouteNo="0" devices="tripinfo_flow_0.13 emissions_flow_0.13" vType="car" speedFactor="0.88" vaporized="">
        <emissions CO_abs="1959.75" CO2_abs="169099.98" HC_abs="13.02" PMx_abs="2.79" NOx_abs="66.88" fuel_abs="53950.60" electricity_abs="0.00"/>
    </tripinfo>
    <tripinfo id="flow_0.14" depart="6992.00" departLane="A4B4_0" departPos="4.60" departSpeed="0.00" departDelay="0.12" arrival="7056.00" arrivalLane="E2D2_0" arrivalPos="85.60" arrivalSpeed="12.98" duration="64.00" routeLength="675.81" waitingTime="0.00" waitingCount="0" stopTime="0.00" timeLoss="10.90" rerouteNo="0" devices="tripinfo_flow_0.14 emissions_flow_0.14" vType="car" speedFactor="0.94" vaporized="">
        <emissions CO_abs="1893.31" CO2_abs="164895.92" HC_abs="12.52" PMx_abs="2.82" NOx_abs="65.89" fuel_abs="52609.28" electricity_abs="0.00"/>
    </tripinfo>
    <tripinfo id="flow_0.15" depart="7492.00" departLane="A4B4_0" departPos="4.60" departSpeed="0.00" departDelay="0.70" arrival="7556.00" arrivalLane="E2D2_0" arrivalPos="85.60" arrivalSpeed="12.74" duration="64.00" routeLength="675.81" waitingTime="0.00" waitingCount="0" stopTime="0.00" timeLoss="10.57" rerouteNo="0" devices="tripinfo_flow_0.15 emissions_flow_0.15" vType="car" speedFactor="0.94" vaporized="">
        <emissions CO_abs="1823.18" CO2_abs="166355.98" HC_abs="12.21" PMx_abs="2.74" NOx_abs="65.88" fuel_abs="53075.41" electricity_abs="0.00"/>
    </tripinfo>
    <tripinfo id="flow_0.16" depart="7991.00" departLane="A4B4_0" departPos="4.60" departSpeed="0.00" departDelay="0.28" arrival="8050.00" arrivalLane="E2D2_0" arrivalPos="85.60" arrivalSpeed="13.49" duration="59.00" routeLength="675.81" waitingTime="0.00" waitingCount="0" stopTime="0.00" timeLoss="8.99" rerouteNo="0" devices="tripinfo_flow_0.16 emissions_flow_0.16" vType="car" speedFactor="1.16" vaporized="">
        <emissions CO_abs="1764.29" CO2_abs="166751.63" HC_abs="11.96" PMx_abs="2.78" NOx_abs="66.44" fuel_abs="53201.73" electricity_abs="0.00"/>
    </tripinfo>
    <tripinfo id="flow_0.17" depart="8491.00" departLane="A4B4_0" departPos="4.60" departSpeed="0.00" departDelay="0.86" arrival="8551.00" arrivalLane="E2D2_0" arrivalPos="85.60" arrivalSpeed="13.39" duration="60.00" routeLength="675.81" waitingTime="0.00" waitingCount="0" stopTime="0.00" timeLoss="10.16" rerouteNo="0" devices="tripinfo_flow_0.17 emissions_flow_0.17" vType="car" speedFactor="1.02" vaporized="">
        <emissions CO_abs="1859.89" CO2_abs="171064.07" HC_abs="12.54" PMx_abs="2.93" NOx_abs="68.58" fuel_abs="54577.41" electricity_abs="0.00"/>
    </tripinfo>
    <tripinfo id="flow_0.18" depart="8990.00" departLane="A4B4_0" departPos="4.60" departSpeed="0.00" departDelay="0.44" arrival="9049.00" arrivalLane="E2D2_0" arrivalPos="85.60" arrivalSpeed="13.43" duration="59.00" routeLength="675.81" waitingTime="0.00" waitingCount="0" stopTime="0.00" timeLoss="9.17" rerouteNo="0" devices="tripinfo_flow_0.18 emissions_flow_0.18" vType="car" speedFactor="1.01" vaporized="">
        <emissions CO_abs="1928.02" CO2_abs="174037.57" HC_abs="12.85" PMx_abs="3.02" NOx_abs="69.95" fuel_abs="55526.03" electricity_abs="0.00"/>
    </tripinfo>
    <tripinfo id="flow_0.19" depart="9489.00" departLane="A4B4_0" departPos="4.60" departSpeed="0.00" departDelay="0.02" arrival="9550.00" arrivalLane="E2D2_0" arrivalPos="85.60" arrivalSpeed="13.50" duration="61.00" routeLength="675.81" waitingTime="0.00" waitingCount="0" stopTime="0.00" timeLoss="9.38" rerouteNo="0" devices="tripinfo_flow_0.19 emissions_flow_0.19" vType="car" speedFactor="0.97" vaporized="">
        <emissions CO_abs="1867.68" CO2_abs="166380.93" HC_abs="12.40" PMx_abs="2.80" NOx_abs="66.08" fuel_abs="53083.32" electricity_abs="0.00"/>
    </tripinfo>
    <tripinfo id="flow_1.3" depart="9600.00" departLane="A2A3_0" departPos="7.60" departSpeed="0.00" departDelay="0.00" arrival="9679.00" arrivalLane="C0B0_0" arrivalPos="85.60" arrivalSpeed="9.18" duration="79.00" routeLength="661.89" waitingTime="0.00" waitingCount="0" stopTime="0.00" timeLoss="10.58" rerouteNo="0" devices="tripinfo_flow_1.3 emissions_flow_1.3" vType="bus" speedFactor="0.89" vaporized="">
        <emissions CO_abs="2395.32" CO2_abs="169512.33" HC_abs="14.92" PMx_abs="2.91" NOx_abs="66.88" fuel_abs="54081.35" electricity_abs="0.00"/>
    </tripinfo>
    <tripinfo id="flow_0.20" depart="9989.00" departLane="A4B4_0" departPos="4.60" departSpeed="0.00" departDelay="0.60" arrival="10060.00" arrivalLane="E2D2_0" arrivalPos="85.60" arrivalSpeed="10.34" duration="71.00" routeLength="675.81" waitingTime="0.00" waitingCount="0" stopTime="0.00" timeLoss="10.62" rerouteNo="0" devices="tripinfo_flow_0.20 emissions_flow_0.20" vType="car" speedFactor="0.83" vaporized="">
        <emissions CO_abs="1908.87" CO2_abs="155367.72" HC_abs="12.46" PMx_abs="2.66" NOx_abs="62.10" fuel_abs="49568.97" electricity_abs="0.00"/>
    </tripinfo>
    <tripinfo id="flow_0.21" depart="10488.00" departLane="A4B4_0" departPos="4.60" departSpeed="0.00" departDelay="0.18" arrival="10555.00" arrivalLane="E2D2_0" arrivalPos="85.60" arrivalSpeed="12.08" duration="67.00" routeLength="675.81" waitingTime="0.00" waitingCount="0" stopTime="0.00" timeLoss="10.09" rerouteNo="0" devices="tripinfo_flow_0.21 emissions_flow_0.21" vType="car" speedFactor="0.87" vaporized="">
        <emissions CO_abs="2003.02" CO2_abs="169687.53" HC_abs="13.23" PMx_abs="2.88" NOx_abs="67.72" fuel_abs="54137.84" electricity_abs="0.00"/>
    </tripinfo>
    <tripinfo id="flow_0.22" depart="10988.00" departLane="A4B4_0" departPos="4.60" departSpeed="0.00" departDelay="0.76" arrival="11053.00" arrivalLane="E2D2_0" arrivalPos="85.60" arrivalSpeed="11.72" duration="65.00" routeLength="675.81" waitingTime="0.00" waitingCount="0" stopTime="0.00" timeLoss="10.07" rerouteNo="0" devices="tripinfo_flow_0.22 emissions_flow_0.22" vType="car" speedFactor="0.92" vaporized="">
        <emissions CO_abs="1745.16" CO2_abs="163765.59" HC_abs="11.84" PMx_abs="2.60" NOx_abs="64.16" fuel_abs="52249.17" electricity_abs="0.00"/>
    </tripinfo>
    <tripinfo id="flow_0.23" depart="11487.00" departLane="A4B4_0" departPos="4.60" departSpeed="0.00" departDelay="0.34" arrival="11550.00" arrivalLane="E2D2_0" arrivalPos="85.60" arrivalSpeed="12.07" duration="63.00" routeLength="675.81" waitingTime="0.00" waitingCount="0" stopTime="0.00" timeLoss="9.99" rerouteNo="0" devices="tripinfo_flow_0.23 emissions_flow_0.23" vType="car" speedFactor="0.95" vaporized="">
        <emissions CO_abs="1934.00" CO2_abs="168105.59" HC_abs="12.90" PMx_abs="2.97" NOx_abs="68.16" fuel_abs="53633.02" electricity_abs="0.00"/>
    </tripinfo>
    <tripinfo id="flow_0.24" depart="11987.00" departLane="A4B4_0" departPos="4.60" departSpeed="0.00" departDelay="0.92" arrival="12046.00" arrivalLane="E2D2_0" arrivalPos="85.60" arrivalSpeed="12.83" duration="59.00" routeLength="675.81" waitingTime="0.00" waitingCount="0" stopTime="0.00" timeLoss="9.76" rerouteNo="0" devices="tripinfo_flow_0.24 emissions_flow_0.24" vType="car" speedFactor="1.13" vaporized="">
        <emissions CO_abs="1727.27" CO2_abs="169320.19" HC_abs="11.87" PMx_abs="2.76" NOx_abs="67.00" fuel_abs="54021.45" electricity_abs="0.00"/>
    </tripinfo>
    <tripinfo id="flow_0.25" depart="12486.00" departLane="A4B4_0" departPos="4.60" departSpeed="0.00" departDelay="0.50" arrival="12550.00" arrivalLane="E2D2_0" arrivalPos="85.60" arrivalSpeed="12.56" duration="64.00" routeLength="675.81" waitingTime="0.00" waitingCount="0" stopTime="0.00" timeLoss="10.31" rerouteNo="0" devices="tripinfo_flow_0.25 emissions_flow_0.25" vType="car" speedFactor="0.93" vaporized="">
        <emissions CO_abs="1913.95" CO2_abs="173339.90" HC_abs="12.83" PMx_abs="2.89" NOx_abs="68.91" fuel_abs="55303.50" electricity_abs="0.00"/>
    </tripinfo>
    <tripinfo id="flow_1.4" depart="12800.00" departLane="A2A3_0" departPos="7.60" departSpeed="0.00" departDelay="0.00" arrival="12876.00" arrivalLane="C0B0_0" arrivalPos="85.60" arrivalSpeed="9.51" duration="76.00" routeLength="661.89" waitingTime="0.00" waitingCount="0" stopTime="0.00" timeLoss="9.02" rerouteNo="0" devices="tripinfo_flow_1.4 emissions_flow_1.4" vType="bus" speedFactor="1.18" vaporized="">
        <emissions CO_abs="2192.98" CO2_abs="163665.74" HC_abs="13.85" PMx_abs="2.68" NOx_abs="63.86" fuel_abs="52216.43" electricity_abs="0.00"/>
    </tripinfo>
    <tripinfo id="flow_0.26" depart="12985.00" departLane="A4B4_0" departPos="4.60" departSpeed="0.00" departDelay="0.08" arrival="13045.00" arrivalLane="E2D2_0" arrivalPos="85.60" arrivalSpeed="13.19" duration="60.00" routeLength="675.81" waitingTime="0.00" waitingCount="0" stopTime="0.00" timeLoss="10.50" rerouteNo="0" devices="tripinfo_flow_0.26 emissions_flow_0.26" vType="car" speedFactor="1.15" vaporized="">
        <emissions CO_abs="1787.71" CO2_abs="164241.33" HC_abs="12.03" PMx_abs="2.79" NOx_abs="65.67" fuel_abs="52400.68" electricity_abs="0.00"/>
    </tripinfo>
    <tripinfo id="flow_0.27" depart="13485.00" departLane="A4B4_0" departPos="4.60" departSpeed="0.00" departDelay="0.66" arrival="13545.00" arrivalLane="E2D2_0" arrivalPos="85.60" arrivalSpeed="12.69" duration="60.00" routeLength="675.81" waitingTime="0.00" waitingCount="0" stopTime="0.00" timeLoss="10.17" rerouteNo="0" devices="tripinfo_flow_0.27 emissions_flow_0.27" vType="car" speedFactor="1.01" vaporized="">
        <emissions CO_abs="1872.94" CO2_abs="175428.99" HC_abs="12.72" PMx_abs="2.99" NOx_abs="70.55" fuel_abs="55969.99" electricity_abs="0.00"/>
    </tripinfo>
    <tripinfo id="flow_0.28" depart="13984.00" departLane="A4B4_0" departPos="4.60" departSpeed="0.00" departDelay="0.24" arrival="14043.00" arrivalLane="E2D2_0" arrivalPos="85.60" arrivalSpeed="13.80" duration="59.00" routeLength="675.81" waitingTime="0.00" waitingCount="0" stopTime="0.00" timeLoss="9.66" rerouteNo="0" devices="tripinfo_flow_0.28 emissions_flow_0.28" vType="car" speedFactor="1.17" vaporized="">
        <emissions CO_abs="1843.35" CO2_abs="173340.17" HC_abs="12.66" PMx_abs="2.97" NOx_abs="69.90" fuel_abs="55303.47" electricity_abs="0.00"/>
    </tripinfo>
    <tripinfo id="flow_0.29" depart="14484.00" departLane="A4B4_0" departPos="4.60" departSpeed="0.00" departDelay="0.82" arrival="14545.00" arrivalLane="E2D2_0" arrivalPos="85.60" arrivalSpeed="13.42" duration="61.00" routeLength="675.81" waitingTime="0.00" waitingCount="0" stopTime="0.00" timeLoss="10.25" rerouteNo="0" devices="tripinfo_flow_0.29 emissions_flow_0.29" vType="car" speedFactor="0.99" vaporized="">
        <emissions CO_abs="1819.39" CO2_abs="167992.39" HC_abs="12.20" PMx_abs="2.82" NOx_abs="66.79" fuel_abs="53597.61" electricity_abs="0.00"/>
    </tripinfo>
    <tripinfo id="flow_0.30" depart="14983.00" departLane="A4B4_0" departPos="4.60" departSpeed="0.00" departDelay="0.40" arrival="15043.00" arrivalLane="E2D2_0" arrivalPos="85.60" arrivalSpeed="13.70" duration="60.00" routeLength="675.81" waitingTime="0.00" waitingCount="0" stopTime="0.00" timeLoss="10.17" rerouteNo="0" devices="tripinfo_flow_0.30 emissions_flow_0.30" vType="car" speedFactor="1.02" vaporized="">
        <emissions CO_abs="1756.40" CO2_abs="168049.14" HC_abs="11.98" PMx_abs="2.84" NOx_abs="67.22" fuel_abs="53615.68" electricity_abs="0.00"/>
    </tripinfo>
    <tripinfo id="flow_0.31" depart="15483.00" departLane="A4B4_0" departPos="4.60" departSpeed="0.00" departDelay="0.98" arrival="15545.00" arrivalLane="E2D2_0" arrivalPos="85.60" arrivalSpeed="12.87" duration="62.00" routeLength="675.81" waitingTime="0.00" waitingCount="0" stopTime="0.00" timeLoss="10.19" rerouteNo="0" devices="tripinfo_flow_0.31 emissions_flow_0.31" vType="car" speedFactor="0.97" vaporized="">
        <emissions CO_abs="1858.13" CO2_abs="169415.76" HC_abs="12.47" PMx_abs="2.86" NOx_abs="67.42" fuel_abs="54051.60" electricity_abs="0.00"/>
    </tripinfo>
    <tripinfo id="flow_0.32" depart="15982.00" departLane="A4B4_0" departPos="4.60" departSpeed="0.00" departDelay="0.56" arrival="16041.00" arrivalLane="E2D2_0" arrivalPos="85.60" arrivalSpeed="13.10" duration="59.00" routeLength="675.81" waitingTime="0.00" waitingCount="0" stopTime="0.00" timeLoss="9.59" rerouteNo="0" devices="tripinfo_flow_0.32 emissions_flow_0.32" vType="car" speedFactor="1.18" vaporized="">
        <emissions CO_abs="1685.44" CO2_abs="166230.37" HC_abs="11.52" PMx_abs="2.68" NOx_abs="65.47" fuel_abs="53035.81" electricity_abs="0.00"/>
    </tripinfo>
    <tripinfo id="flow_1.5" depart="16000.00" departLane="A2A3_0" departPos="7.60" departSpeed="0.00" departDelay="0.00" arrival="16076.00" arrivalLane="C0B0_0" arrivalPos="85.60" arrivalSpeed="9.54" duration="76.00" routeLength="661.89" waitingTime="0.00" waitingCount="0" stopTime="0.00" timeLoss="8.80" rerouteNo="0" devices="tripinfo_flow_1.5 emissions_flow_1.5" vType="bus" speedFactor="1.10" vaporized="">
        <emissions CO_abs="2279.90" CO2_abs="169134.14" HC_abs="14.39" PMx_abs="2.83" NOx_abs="66.47" fuel_abs="53960.94" electricity_abs="0.00"/>
    </tripinfo>
    <tripinfo id="flow_0.33" depart="16481.00" departLane="A4B4_0" departPos="4.60" departSpeed="0.00" departDelay="0.14" arrival="16547.00" arrivalLane="E2D2_0" arrivalPos="85.60" arrivalSpeed="11.65" duration="66.00" routeLength="675.81" waitingTime="0.00" waitingCount="0" stopTime="0.00" timeLoss="10.07" rerouteNo="0" devices="tripinfo_flow_0.33 emissions_flow_0.33" vType="car" speedFactor="0.90" vaporized="">
        <emissions CO_abs="1795.72" CO2_abs="162760.78" HC_abs="11.99" PMx_abs="2.59" NOx_abs="63.59" fuel_abs="51928.54" electricity_abs="0.00"/>
    </tripinfo>
    <tripinfo id="flow_0.34" depart="16981.00" departLane="A4B4_0" departPos="4.60" departSpeed="0.00" departDelay="0.72" arrival="17040.00" arrivalLane="E2D2_0" arrivalPos="85.60" arrivalSpeed="13.44" duration="59.00" routeLength="675.81" waitingTime="0.00" waitingCount="0" stopTime="0.00" timeLoss="9.91" rerouteNo="0" devices="tripinfo_flow_0.34 emissions_flow_0.34" vType="car" speedFactor="1.03" vaporized="">
        <emissions CO_abs="1715.22" CO2_abs="167851.42" HC_abs="11.70" PMx_abs="2.72" NOx_abs="66.29" fuel_abs="53552.91" electricity_abs="0.00"/>
    </tripinfo>
    <tripinfo id="flow_0.35" depart="17480.00" departLane="A4B4_0" departPos="4.60" departSpeed="0.00" departDelay="0.30" arrival="17543.00" arrivalLane="E2D2_0" arrivalPos="85.60" arrivalSpeed="12.12" duration="63.00" routeLength="675.81" waitingTime="0.00" waitingCount="0" stopTime="0.00" timeLoss="10.96" rerouteNo="0" devices="tripinfo_flow_0.35 emissions_flow_0.35" vType="car" speedFactor="0.96" vaporized="">
        <emissions CO_abs="1840.62" CO2_abs="163827.05" HC_abs="12.33" PMx_abs="2.79" NOx_abs="65.54" fuel_abs="52268.30" electricity_abs="0.00"/>
    </tripinfo>
    <tripinfo id="flow_0.36" depart="17980.00" departLane="A4B4_0" departPos="4.60" departSpeed="0.00" departDelay="0.88" arrival="18041.00" arrivalLane="E2D2_0" arrivalPos="85.60" arrivalSpeed="13.29" duration="61.00" routeLength="675.81" waitingTime="0.00" waitingCount="0" stopTime="0.00" timeLoss="11.08" rerouteNo="0" devices="tripinfo_flow_0.36 emissions_flow_0.36" vType="car" speedFactor="1.09" vaporized="">
        <emissions CO_abs="1824.43" CO2_abs="174836.08" HC_abs="12.33" PMx_abs="2.83" NOx_abs="68.83" fuel_abs="55781.36" electricity_abs="0.00"/>
    </tripinfo>
    <tripinfo id="flow_0.37" depart="18479.00" departLane="A4B4_0" departPos="4.60" departSpeed="0.00" departDelay="0.46" arrival="18538.00" arrivalLane="E2D2_0" arrivalPos="85.60" arrivalSpeed="13.17" duration="59.00" routeLength="675.81" waitingTime="0.00" waitingCount="0" stopTime="0.00" timeLoss="9.63" rerouteNo="0" devices="tripinfo_flow_0.37 emissions_flow_0.37" vType="car" speedFactor="1.04" vaporized="">
        <emissions CO_abs="1771.30" CO2_abs="172304.35" HC_abs="12.13" PMx_abs="2.82" NOx_abs="68.08" fuel_abs="54973.60" electricity_abs="0.00"/>
    </tripinfo>
    <tripinfo id="flow_0.38" depart="18978.00" departLane="A4B4_0" departPos="4.60" departSpeed="0.00" departDelay="0.04" arrival="19037.00" arrivalLane="E2D2_0" arrivalPos="85.60" arrivalSpeed="13.29" duration="59.00" routeLength="675.81" waitingTime="0.00" waitingCount="0" stopTime="0.00" timeLoss="9.90" rerouteNo="0" devices="tripinfo_flow_0.38 emissions_flow_0.38" vType="car" speedFactor="1.04" vaporized="">
        <emissions CO_abs="1740.18" CO2_abs="172054.66" HC_abs="11.93" PMx_abs="2.73" NOx_abs="67.35" fuel_abs="54894.18" electricity_abs="0.00"/>
    </tripinfo>
    <tripinfo id="flow_1.6" depart="19200.00" departLane="A2A3_0" departPos="7.60" departSpeed="0.00" departDelay="0.00" arrival="19276.00" arrivalLane="C0B0_0" arrivalPos="85.60" arrivalSpeed="9.65" duration="76.00" routeLength="661.89" waitingTime="0.00" waitingCount="0" stopTime="0.00" timeLoss="8.35" rerouteNo="0" devices="tripinfo_flow_1.6 emissions_flow_1.6" vType="bus" speedFactor="1.09" vaporized="">
        <emissions CO_abs="2117.41" CO2_abs="161791.02" HC_abs="13.46" PMx_abs="2.60" NOx_abs="62.88" fuel_abs="51618.45" electricity_abs="0.00"/>
    </tripinfo>
    <tripinfo id="flow_0.39" depart="19478.00" departLane="A4B4_0" departPos="4.60" departSpeed="0.00" departDelay="0.62" arrival="19539.00" arrivalLane="E2D2_0" arrivalPos="85.60" arrivalSpeed="13.70" duration="61.00" routeLength="675.81" waitingTime="0.00" waitingCount="0" stopTime="0.00" timeLoss="10.43" rerouteNo="0" devices="tripinfo_flow_0.39 emissions_flow_0.39" vType="car" speedFactor="1.00" vaporized="">
        <emissions CO_abs="1838.93" CO2_abs="169669.96" HC_abs="12.56" PMx_abs="2.89" NOx_abs="68.04" fuel_abs="54132.53" electricity_abs="0.00"/>
    </tripinfo>
    <tripinfo id="flow_0.40" depart="19977.00" departLane="A4B4_0" departPos="4.60" departSpeed="0.00" departDelay="0.20" arrival="20043.00" arrivalLane="E2D2_0" arrivalPos="85.60" arrivalSpeed="12.24" duration="66.00" routeLength="675.81" waitingTime="0.00" waitingCount="0" stopTime="0.00" timeLoss="9.93" rerouteNo="0" devices="tripinfo_flow_0.40 emissions_flow_0.40" vType="car" speedFactor="0.90" vaporized="">
        <emissions CO_abs="1861.47" CO2_abs="169795.45" HC_abs="12.53" PMx_abs="2.67" NOx_abs="66.08" fuel_abs="54173.02" electricity_abs="0.00"/>
    </tripinfo>
    <tripinfo id="flow_0.41" depart="20477.00" departLane="A4B4_0" departPos="4.60" departSpeed="0.00" departDelay="0.78" arrival="20545.00" arrivalLane="E2D2_0" arrivalPos="85.60" arrivalSpeed="11.91" duration="68.00" routeLength="675.81" waitingTime="0.00" waitingCount="0" stopTime="0.00" timeLoss="10.68" rerouteNo="0" devices="tripinfo_flow_0.41 emissions_flow_0.41" vType="car" speedFactor="0.88" vaporized="">
        <emissions CO_abs="2005.40" CO2_abs="167311.91" HC_abs="13.18" PMx_abs="2.84" NOx_abs="66.70" fuel_abs="53379.87" electricity_abs="0.00"/>
    </tripinfo>
    <tripinfo id="flow_0.42" depart="20976.00" departLane="A4B4_0" departPos="4.60" departSpeed="0.00" departDelay="0.36" arrival="21045.00" arrivalLane="E2D2_0" arrivalPos="85.60" arrivalSpeed="11.61" duration="69.00" routeLength="675.81" waitingTime="0.00" waitingCount="0" stopTime="0.00" timeLoss="10.29" rerouteNo="0" devices="tripinfo_flow_0.42 emissions_flow_0.42" vType="car" speedFactor="0.85" vaporized="">
        <emissions CO_abs="1877.78" CO2_abs="161639.93" HC_abs="12.39" PMx_abs="2.60" NOx_abs="63.21" fuel_abs="51570.67" electricity_abs="0.00"/>
    </tripinfo>