<?xml version="1.0" encoding="UTF-8"?>

<!-- generated on 2025-10-17 15:48:39 by Eclipse SUMO GUI Version 1.24.0
<sumoConfiguration xmlns:xsi="http://www.w3.org/2001/XMLSchema-instance" xsi:noNamespaceSchemaLocation="http://sumo.dlr.de/xsd/sumoConfiguration.xsd">

    <input>
        <net-file value="C:\Users\hasht\Desktop\SUMO\python_interface\2\manhattan.net.xml"/>
        <route-files value="C:\Users\hasht\Desktop\SUMO\python_interface\2\flows.rou.xml"/>
    </input>

    <output>
        <emission-output value="C:\Users\hasht\Desktop\SUMO\python_interface\2\emissions.xml"/>
        <summary-output value="C:\Users\hasht\Desktop\SUMO\python_interface\2\summary.xml"/>
        <tripinfo-output value="C:\Users\hasht\Desktop\SUMO\python_interface\2\tripinfo.xml"/>
    </output>

    <time>
        <begin value="0"/>
        <end value="3600"/>
    </time>

    <report>
        <verbose value="true"/>
        <no-step-log value="false"/>
    </report>

</sumoConfiguration>
-->

<tripinfos xmlns:xsi="http://www.w3.org/2001/XMLSchema-instance" xsi:noNamespaceSchemaLocation="http://sumo.dlr.de/xsd/tripinfo_file.xsd">
    <tripinfo id="flow_0.0" depart="0.00" departLane="A4B4_0" departPos="4.60" departSpeed="0.00" departDelay="0.00" arrival="59.00" arrivalLane="E2D2_0" arrivalPos="85.60" arrivalSpeed="13.64" duration="59.00" routeLength="675.81" waitingTime="0.00" waitingCount="0" stopTime="0.00" timeLoss="9.65" rerouteNo="0" devices="tripinfo_flow_0.0 emissions_flow_0.0" vType="car" speedFactor="1.06" vaporized="">
        <emissions CO_abs="1879.17" CO2_abs="172925.16" HC_abs="12.67" PMx_abs="2.97" NOx_abs="69.42" fuel_abs="55171.16" electricity_abs="0.00"/>
    </tripinfo>
    <tripinfo id="flow_0.1" depart="6.00" departLane="A4B4_0" departPos="4.60" departSpeed="0.00" departDelay="0.00" arrival="69.00" arrivalLane="E2D2_0" arrivalPos="85.60" arrivalSpeed="12.17" duration="63.00" routeLength="675.81" waitingTime="0.00" waitingCount="0" stopTime="0.00" timeLoss="10.10" rerouteNo="0" devices="tripinfo_flow_0.1 emissions_flow_0.1" vType="car" speedFactor="0.94" vaporized="">
        <emissions CO_abs="1609.13" CO2_abs="161987.89" HC_abs="10.99" PMx_abs="2.48" NOx_abs="62.59" fuel_abs="51682.56" electricity_abs="0.00"/>
    </tripinfo>
    <tripinfo id="flow_0.2" depart="12.00" departLane="A4B4_0" departPos="4.60" departSpeed="0.00" departDelay="0.00" arrival="72.00" arrivalLane="E2D2_0" arrivalPos="85.60" arrivalSpeed="13.48" duration="60.00" routeLength="675.81" waitingTime="0.00" waitingCount="0" stopTime="0.00" timeLoss="10.47" rerouteNo="0" devices="tripinfo_flow_0.2 emissions_flow_0.2" vType="car" speedFactor="1.01" vaporized="">
        <emissions CO_abs="1902.89" CO2_abs="171097.70" HC_abs="12.72" PMx_abs="2.94" NOx_abs="68.74" fuel_abs="54587.99" electricity_abs="0.00"/>
    </tripinfo>
    <tripinfo id="flow_0.3" depart="18.00" departLane="A4B4_0" departPos="4.60" departSpeed="0.00" departDelay="0.00" arrival="79.00" arrivalLane="E2D2_0" arrivalPos="85.60" arrivalSpeed="13.81" duration="61.00" routeLength="675.81" waitingTime="0.00" waitingCount="0" stopTime="0.00" timeLoss="10.56" rerouteNo="0" devices="tripinfo_flow_0.3 emissions_flow_0.3" vType="car" speedFactor="1.08" vaporized="">
        <emissions CO_abs="1843.26" CO2_abs="174507.68" HC_abs="12.51" PMx_abs="2.85" NOx_abs="69.02" fuel_abs="55676.42" electricity_abs="0.00"/>
    </tripinfo>
    <tripinfo id="flow_0.4" depart="24.00" departLane="A4B4_0" departPos="4.60" departSpeed="0.00" departDelay="0.00" arrival="84.00" arrivalLane="E2D2_0" arrivalPos="85.60" arrivalSpeed="13.48" duration="60.00" routeLength="675.81" waitingTime="0.00" waitingCount="0" stopTime="0.00" timeLoss="10.34" rerouteNo="0" devices="tripinfo_flow_0.4 emissions_flow_0.4" vType="car" speedFactor="1.03" vaporized="">
        <emissions CO_abs="1749.41" CO2_abs="164820.74" HC_abs="11.83" PMx_abs="2.74" NOx_abs="65.58" fuel_abs="52585.70" electricity_abs="0.00"/>
    </tripinfo>
    <tripinfo id="flow_0.5" depart="30.00" departLane="A4B4_0" departPos="4.60" departSpeed="0.00" departDelay="0.00" arrival="101.00" arrivalLane="E2D2_0" arrivalPos="85.60" arrivalSpeed="10.48" duration="71.00" routeLength="675.81" waitingTime="0.00" waitingCount="0" stopTime="0.00" timeLoss="10.01" rerouteNo="0" devices="tripinfo_flow_0.5 emissions_flow_0.5" vType="car" speedFactor="0.83" vaporized="">
        <emissions CO_abs="2083.86" CO2_abs="165285.08" HC_abs="13.46" PMx_abs="2.81" NOx_abs="65.55" fuel_abs="52733.12" electricity_abs="0.00"/>
    </tripinfo>
    <tripinfo id="flow_0.6" depart="36.00" departLane="A4B4_0" departPos="4.60" departSpeed="0.00" departDelay="0.00" arrival="102.00" arrivalLane="E2D2_0" arrivalPos="85.60" arrivalSpeed="13.01" duration="66.00" routeLength="675.81" waitingTime="0.00" waitingCount="0" stopTime="0.00" timeLoss="16.01" rerouteNo="0" devices="tripinfo_flow_0.6 emissions_flow_0.6" vType="car" speedFactor="1.05" vaporized="">
        <emissions CO_abs="2129.79" CO2_abs="179245.07" HC_abs="14.02" PMx_abs="3.12" NOx_abs="71.99" fuel_abs="57187.07" electricity_abs="0.00"/>
    </tripinfo>
    <tripinfo id="flow_0.7" depart="42.00" departLane="A4B4_0" departPos="4.60" departSpeed="0.00" departDelay="0.00" arrival="107.00" arrivalLane="E2D2_0" arrivalPos="85.60" arrivalSpeed="11.91" duration="65.00" routeLength="675.81" waitingTime="0.00" waitingCount="0" stopTime="0.00" timeLoss="9.29" rerouteNo="0" devices="tripinfo_flow_0.7 emissions_flow_0.7" vType="car" speedFactor="0.89" vaporized="">
        <emissions CO_abs="1746.98" CO2_abs="162287.24" HC_abs="11.81" PMx_abs="2.61" NOx_abs="63.84" fuel_abs="51777.38" electricity_abs="0.00"/>
    </tripinfo>
    <tripinfo id="flow_0.8" depart="48.00" departLane="A4B4_0" departPos="4.60" departSpeed="0.00" departDelay="0.00" arrival="111.00" arrivalLane="E2D2_0" arrivalPos="85.60" arrivalSpeed="11.93" duration="63.00" routeLength="675.81" waitingTime="0.00" waitingCount="0" stopTime="0.00" timeLoss="9.91" rerouteNo="0" devices="tripinfo_flow_0.8 emissions_flow_0.8" vType="car" speedFactor="0.94" vaporized="">
        <emissions CO_abs="1854.73" CO2_abs="157742.43" HC_abs="12.22" PMx_abs="2.78" NOx_abs="63.69" fuel_abs="50326.73" electricity_abs="0.00"/>
    </tripinfo>
    <tripinfo id="flow_0.9" depart="54.00" departLane="A4B4_0" departPos="4.60" departSpeed="0.00" departDelay="0.00" arrival="123.00" arrivalLane="E2D2_0" arrivalPos="85.60" arrivalSpeed="10.68" duration="69.00" routeLength="675.81" waitingTime="0.00" waitingCount="0" stopTime="0.00" timeLoss="10.35" rerouteNo="0" devices="tripinfo_flow_0.9 emissions_flow_0.9" vType="car" speedFactor="0.86" vaporized="">
        <emissions CO_abs="1855.47" CO2_abs="160621.27" HC_abs="12.31" PMx_abs="2.61" NOx_abs="63.18" fuel_abs="51245.60" electricity_abs="0.00"/>
    </tripinfo>
    <tripinfo id="flow_0.10" depart="60.00" departLane="A4B4_0" departPos="4.60" departSpeed="0.00" departDelay="0.00" arrival="124.00" arrivalLane="E2D2_0" arrivalPos="85.60" arrivalSpeed="13.12" duration="64.00" routeLength="675.81" waitingTime="0.00" waitingCount="0" stopTime="0.00" timeLoss="13.85" rerouteNo="0" devices="tripinfo_flow_0.10 emissions_flow_0.10" vType="car" speedFactor="1.09" vaporized="">
        <emissions CO_abs="2162.09" CO2_abs="179489.94" HC_abs="14.13" PMx_abs="3.22" NOx_abs="72.80" fuel_abs="57265.02" electricity_abs="0.00"/>
    </tripinfo>
    <tripinfo id="flow_0.11" depart="66.00" departLane="A4B4_0" departPos="4.60" departSpeed="0.00" departDelay="0.00" arrival="127.00" arrivalLane="E2D2_0" arrivalPos="85.60" arrivalSpeed="12.87" duration="61.00" routeLength="675.81" waitingTime="0.00" waitingCount="0" stopTime="0.00" timeLoss="10.68" rerouteNo="0" devices="tripinfo_flow_0.11 emissions_flow_0.11" vType="car" speedFactor="1.03" vaporized="">
        <emissions CO_abs="2006.72" CO2_abs="172757.02" HC_abs="13.25" PMx_abs="3.06" NOx_abs="69.94" fuel_abs="55117.11" electricity_abs="0.00"/>
    </tripinfo>
    <tripinfo id="flow_0.12" depart="72.00" departLane="A4B4_0" departPos="4.60" departSpeed="0.00" departDelay="0.00" arrival="132.00" arrivalLane="E2D2_0" arrivalPos="85.60" arrivalSpeed="13.61" duration="60.00" routeLength="675.81" waitingTime="0.00" waitingCount="0" stopTime="0.00" timeLoss="9.70" rerouteNo="0" devices="tripinfo_flow_0.12 emissions_flow_0.12" vType="car" speedFactor="1.05" vaporized="">
        <emissions CO_abs="1807.95" CO2_abs="173890.60" HC_abs="12.22" PMx_abs="2.82" NOx_abs="68.32" fuel_abs="55479.80" electricity_abs="0.00"/>
    </tripinfo>
    <tripinfo id="flow_0.13" depart="78.00" departLane="A4B4_0" departPos="4.60" departSpeed="0.00" departDelay="0.00" arrival="137.00" arrivalLane="E2D2_0" arrivalPos="85.60" arrivalSpeed="13.74" duration="59.00" routeLength="675.81" waitingTime="0.00" waitingCount="0" stopTime="0.00" timeLoss="9.11" rerouteNo="0" devices="tripinfo_flow_0.13 emissions_flow_0.13" vType="car" speedFactor="1.12" vaporized="">
        <emissions CO_abs="1676.06" CO2_abs="164782.44" HC_abs="11.46" PMx_abs="2.69" NOx_abs="65.37" fuel_abs="52573.67" electricity_abs="0.00"/>
    </tripinfo>
    <tripinfo id="flow_0.14" depart="84.00" departLane="A4B4_0" departPos="4.60" departSpeed="0.00" departDelay="0.00" arrival="145.00" arrivalLane="E2D2_0" arrivalPos="85.60" arrivalSpeed="13.19" duration="61.00" routeLength="675.81" waitingTime="0.00" waitingCount="0" stopTime="0.00" timeLoss="10.11" rerouteNo="0" devices="tripinfo_flow_0.14 emissions_flow_0.14" vType="car" speedFactor="0.99" vaporized="">
        <emissions CO_abs="1878.02" CO2_abs="171598.54" HC_abs="12.68" PMx_abs="2.86" NOx_abs="68.19" fuel_abs="54748.01" electricity_abs="0.00"/>
    </tripinfo>
    <tripinfo id="flow_0.15" depart="90.00" departLane="A4B4_0" departPos="4.60" departSpeed="0.00" departDelay="0.00" arrival="154.00" arrivalLane="E2D2_0" arrivalPos="85.60" arrivalSpeed="11.58" duration="64.00" routeLength="675.81" waitingTime="0.00" waitingCount="0" stopTime="0.00" timeLoss="9.87" rerouteNo="0" devices="tripinfo_flow_0.15 emissions_flow_0.15" vType="car" speedFactor="0.93" vaporized="">
        <emissions CO_abs="1802.01" CO2_abs="165571.58" HC_abs="12.18" PMx_abs="2.75" NOx_abs="65.80" fuel_abs="52825.07" electricity_abs="0.00"/>
    </tripinfo>
    <tripinfo id="flow_0.16" depart="96.00" departLane="A4B4_0" departPos="4.60" departSpeed="0.00" departDelay="0.00" arrival="163.00" arrivalLane="E2D2_0" arrivalPos="85.60" arrivalSpeed="11.56" duration="67.00" routeLength="675.81" waitingTime="0.00" waitingCount="0" stopTime="0.00" timeLoss="10.23" rerouteNo="0" devices="tripinfo_flow_0.16 emissions_flow_0.16" vType="car" speedFactor="0.88" vaporized="">
        <emissions CO_abs="1916.97" CO2_abs="167606.96" HC_abs="12.73" PMx_abs="2.66" NOx_abs="65.35" fuel_abs="53474.56" electricity_abs="0.00"/>
    </tripinfo>
    <tripinfo id="flow_0.17" depart="102.00" departLane="A4B4_0" departPos="4.60" departSpeed="0.00" departDelay="0.00" arrival="166.00" arrivalLane="E2D2_0" arrivalPos="85.60" arrivalSpeed="12.25" duration="64.00" routeLength="675.81" waitingTime="0.00" waitingCount="0" stopTime="0.00" timeLoss="10.66" rerouteNo="0" devices="tripinfo_flow_0.17 emissions_flow_0.17" vType="car" speedFactor="0.94" vaporized="">
        <emissions CO_abs="1848.06" CO2_abs="164843.81" HC_abs="12.38" PMx_abs="2.79" NOx_abs="65.81" fuel_abs="52592.71" electricity_abs="0.00"/>
    </tripinfo>
    <tripinfo id="flow_0.18" depart="108.00" departLane="A4B4_0" departPos="4.60" departSpeed="0.00" departDelay="0.00" arrival="172.00" arrivalLane="E2D2_0" arrivalPos="85.60" arrivalSpeed="12.35" duration="64.00" routeLength="675.81" waitingTime="0.00" waitingCount="0" stopTime="0.00" timeLoss="10.42" rerouteNo="0" devices="tripinfo_flow_0.18 emissions_flow_0.18" vType="car" speedFactor="0.94" vaporized="">
        <emissions CO_abs="1848.85" CO2_abs="165564.81" HC_abs="12.43" PMx_abs="2.80" NOx_abs="66.13" fuel_abs="52822.74" electricity_abs="0.00"/>
    </tripinfo>
    <tripinfo id="flow_0.19" depart="114.00" departLane="A4B4_0" departPos="4.60" departSpeed="0.00" departDelay="0.00" arrival="174.00" arrivalLane="E2D2_0" arrivalPos="85.60" arrivalSpeed="12.99" duration="60.00" routeLength="675.81" waitingTime="0.00" waitingCount="0" stopTime="0.00" timeLoss="10.24" rerouteNo="0" devices="tripinfo_flow_0.19 emissions_flow_0.19" vType="car" speedFactor="1.16" vaporized="">
        <emissions CO_abs="1956.49" CO2_abs="169954.10" HC_abs="12.99" PMx_abs="3.02" NOx_abs="68.86" fuel_abs="54222.86" electricity_abs="0.00"/>
    </tripinfo>
    <tripinfo id="flow_0.20" depart="120.00" departLane="A4B4_0" departPos="4.60" departSpeed="0.00" departDelay="0.00" arrival="180.00" arrivalLane="E2D2_0" arrivalPos="85.60" arrivalSpeed="13.25" duration="60.00" routeLength="675.81" waitingTime="0.00" waitingCount="0" stopTime="0.00" timeLoss="10.17" rerouteNo="0" devices="tripinfo_flow_0.20 emissions_flow_0.20" vType="car" speedFactor="1.02" vaporized="">
        <emissions CO_abs="1808.02" CO2_abs="169676.12" HC_abs="12.28" PMx_abs="2.88" NOx_abs="67.84" fuel_abs="54134.71" electricity_abs="0.00"/>
    </tripinfo>
    <tripinfo id="flow_0.21" depart="126.00" departLane="A4B4_0" departPos="4.60" departSpeed="0.00" departDelay="0.00" arrival="186.00" arrivalLane="E2D2_0" arrivalPos="85.60" arrivalSpeed="13.86" duration="60.00" routeLength="675.81" waitingTime="0.00" waitingCount="0" stopTime="0.00" timeLoss="9.95" rerouteNo="0" devices="tripinfo_flow_0.21 emissions_flow_0.21" vType="car" speedFactor="1.01" vaporized="">
        <emissions CO_abs="1870.45" CO2_abs="176208.75" HC_abs="12.78" PMx_abs="2.99" NOx_abs="70.62" fuel_abs="56218.85" electricity_abs="0.00"/>
    </tripinfo>
    <tripinfo id="flow_0.22" depart="132.00" departLane="A4B4_0" departPos="4.60" departSpeed="0.00" departDelay="0.00" arrival="193.00" arrivalLane="E2D2_0" arrivalPos="85.60" arrivalSpeed="12.66" duration="61.00" routeLength="675.81" waitingTime="0.00" waitingCount="0" stopTime="0.00" timeLoss="9.56" rerouteNo="0" devices="tripinfo_flow_0.22 emissions_flow_0.22" vType="car" speedFactor="0.97" vaporized="">
        <emissions CO_abs="1903.28" CO2_abs="173906.04" HC_abs="12.80" PMx_abs="2.89" NOx_abs="68.99" fuel_abs="55484.25" electricity_abs="0.00"/>
    </tripinfo>
    <tripinfo id="flow_0.23" depart="138.00" departLane="A4B4_0" departPos="4.60" departSpeed="0.00" departDelay="0.00" arrival="206.00" arrivalLane="E2D2_0" arrivalPos="85.60" arrivalSpeed="11.25" duration="68.00" routeLength="675.81" waitingTime="0.00" waitingCount="0" stopTime="0.00" timeLoss="11.49" rerouteNo="0" devices="tripinfo_flow_0.23 emissions_flow_0.23" vType="car" speedFactor="0.89" vaporized="">
        <emissions CO_abs="2003.34" CO2_abs="164607.32" HC_abs="13.10" PMx_abs="2.80" NOx_abs="65.43" fuel_abs="52517.02" electricity_abs="0.00"/>
    </tripinfo>
    <tripinfo id="flow_0.24" depart="144.00" departLane="A4B4_0" departPos="4.60" departSpeed="0.00" departDelay="0.00" arrival="214.00" arrivalLane="E2D2_0" arrivalPos="85.60" arrivalSpeed="10.96" duration="70.00" routeLength="675.81" waitingTime="0.00" waitingCount="0" stopTime="0.00" timeLoss="9.63" rerouteNo="0" devices="tripinfo_flow_0.24 emissions_flow_0.24" vType="car" speedFactor="0.83" vaporized="">
        <emissions CO_abs="1907.85" CO2_abs="162123.68" HC_abs="12.59" PMx_abs="2.68" NOx_abs="64.07" fuel_abs="51724.75" electricity_abs="0.00"/>
    </tripinfo>
    <tripinfo id="flow_0.25" depart="150.00" departLane="A4B4_0" departPos="4.60" departSpeed="0.00" departDelay="0.00" arrival="218.00" arrivalLane="E2D2_0" arrivalPos="85.60" arrivalSpeed="11.05" duration="68.00" routeLength="675.81" waitingTime="0.00" waitingCount="0" stopTime="0.00" timeLoss="10.34" rerouteNo="0" devices="tripinfo_flow_0.25 emissions_flow_0.25" vType="car" speedFactor="0.87" vaporized="">
        <emissions CO_abs="1890.83" CO2_abs="166331.55" HC_abs="12.60" PMx_abs="2.71" NOx_abs="65.50" fuel_abs="53067.49" electricity_abs="0.00"/>
    </tripinfo>
    <tripinfo id="flow_0.26" depart="156.00" departLane="A4B4_0" departPos="4.60" departSpeed="0.00" departDelay="0.00" arrival="220.00" arrivalLane="E2D2_0" arrivalPos="85.60" arrivalSpeed="12.16" duration="64.00" routeLength="675.81" waitingTime="0.00" waitingCount="0" stopTime="0.00" timeLoss="10.11" rerouteNo="0" devices="tripinfo_flow_0.26 emissions_flow_0.26" vType="car" speedFactor="0.92" vaporized="">
        <emissions CO_abs="1839.20" CO2_abs="162574.54" HC_abs="12.34" PMx_abs="2.79" NOx_abs="65.36" fuel_abs="51868.53" electricity_abs="0.00"/>
    </tripinfo>
    <tripinfo id="flow_0.27" depart="162.00" departLane="A4B4_0" departPos="4.60" departSpeed="0.00" departDelay="0.00" arrival="225.00" arrivalLane="E2D2_0" arrivalPos="85.60" arrivalSpeed="11.96" duration="63.00" routeLength="675.81" waitingTime="0.00" waitingCount="0" stopTime="0.00" timeLoss="9.86" rerouteNo="0" devices="tripinfo_flow_0.27 emissions_flow_0.27" vType="car" speedFactor="0.95" vaporized="">
        <emissions CO_abs="1734.17" CO2_abs="164746.04" HC_abs="11.73" PMx_abs="2.65" NOx_abs="64.65" fuel_abs="52562.08" electricity_abs="0.00"/>
    </tripinfo>
    <tripinfo id="flow_0.28" depart="168.00" departLane="A4B4_0" departPos="4.60" departSpeed="0.00" departDelay="0.00" arrival="227.00" arrivalLane="E2D2_0" arrivalPos="85.60" arrivalSpeed="13.57" duration="59.00" routeLength="675.81" waitingTime="0.00" waitingCount="0" stopTime="0.00" timeLoss="9.65" rerouteNo="0" devices="tripinfo_flow_0.28 emissions_flow_0.28" vType="car" speedFactor="1.13" vaporized="">
        <emissions CO_abs="1757.48" CO2_abs="170845.59" HC_abs="12.01" PMx_abs="2.80" NOx_abs="67.68" fuel_abs="54508.12" electricity_abs="0.00"/>
    </tripinfo>
    <tripinfo id="flow_0.29" depart="174.00" departLane="A4B4_0" departPos="4.60" departSpeed="0.00" departDelay="0.00" arrival="237.00" arrivalLane="E2D2_0" arrivalPos="85.60" arrivalSpeed="11.78" duration="63.00" routeLength="675.81" waitingTime="0.00" waitingCount="0" stopTime="0.00" timeLoss="9.82" rerouteNo="0" devices="tripinfo_flow_0.29 emissions_flow_0.29" vType="car" speedFactor="0.93" vaporized="">
        <emissions CO_abs="1779.90" CO2_abs="168629.58" HC_abs="12.00" PMx_abs="2.66" NOx_abs="65.73" fuel_abs="53801.22" electricity_abs="0.00"/>
    </tripinfo>
    <tripinfo id="flow_0.30" depart="180.00" departLane="A4B4_0" departPos="4.60" departSpeed="0.00" departDelay="0.00" arrival="239.00" arrivalLane="E2D2_0" arrivalPos="85.60" arrivalSpeed="13.09" duration="59.00" routeLength="675.81" waitingTime="0.00" waitingCount="0" stopTime="0.00" timeLoss="9.45" rerouteNo="0" devices="tripinfo_flow_0.30 emissions_flow_0.30" vType="car" speedFactor="1.18" vaporized="">
        <emissions CO_abs="1639.80" CO2_abs="162290.21" HC_abs="11.23" PMx_abs="2.60" NOx_abs="63.94" fuel_abs="51778.67" electricity_abs="0.00"/>
    </tripinfo>
    <tripinfo id="flow_0.31" depart="186.00" departLane="A4B4_0" departPos="4.60" departSpeed="0.00" departDelay="0.00" arrival="245.00" arrivalLane="E2D2_0" arrivalPos="85.60" arrivalSpeed="13.78" duration="59.00" routeLength="675.81" waitingTime="0.00" waitingCount="0" stopTime="0.00" timeLoss="9.58" rerouteNo="0" devices="tripinfo_flow_0.31 emissions_flow_0.31" vType="car" speedFactor="1.15" vaporized="">
        <emissions CO_abs="1745.06" CO2_abs="165918.20" HC_abs="11.90" PMx_abs="2.77" NOx_abs="66.08" fuel_abs="52935.83" electricity_abs="0.00"/>
    </tripinfo>
    <tripinfo id="flow_0.32" depart="192.00" departLane="A4B4_0" departPos="4.60" departSpeed="0.00" departDelay="0.00" arrival="253.00" arrivalLane="E2D2_0" arrivalPos="85.60" arrivalSpeed="13.06" duration="61.00" routeLength="675.81" waitingTime="0.00" waitingCount="0" stopTime="0.00" timeLoss="10.42" rerouteNo="0" devices="tripinfo_flow_0.32 emissions_flow_0.32" vType="car" speedFactor="1.01" vaporized="">
        <emissions CO_abs="1882.31" CO2_abs="171476.59" HC_abs="12.64" PMx_abs="2.91" NOx_abs="68.58" fuel_abs="54709.02" electricity_abs="0.00"/>
    </tripinfo>
    <tripinfo id="flow_0.33" depart="198.00" departLane="A4B4_0" departPos="4.60" departSpeed="0.00" departDelay="0.00" arrival="257.00" arrivalLane="E2D2_0" arrivalPos="85.60" arrivalSpeed="13.49" duration="59.00" routeLength="675.81" waitingTime="0.00" waitingCount="0" stopTime="0.00" timeLoss="9.94" rerouteNo="0" devices="tripinfo_flow_0.33 emissions_flow_0.33" vType="car" speedFactor="1.17" vaporized="">
        <emissions CO_abs="1812.96" CO2_abs="170652.75" HC_abs="12.22" PMx_abs="2.84" NOx_abs="67.70" fuel_abs="54446.49" electricity_abs="0.00"/>
    </tripinfo>
    <tripinfo id="flow_0.34" depart="204.00" departLane="A4B4_0" departPos="4.60" departSpeed="0.00" departDelay="0.00" arrival="264.00" arrivalLane="E2D2_0" arrivalPos="85.60" arrivalSpeed="12.60" duration="60.00" routeLength="675.81" waitingTime="0.00" waitingCount="0" stopTime="0.00" timeLoss="9.81" rerouteNo="0" devices="tripinfo_flow_0.34 emissions_flow_0.34" vType="car" speedFactor="0.99" vaporized="">
        <emissions CO_abs="1789.17" CO2_abs="173686.47" HC_abs="12.22" PMx_abs="2.80" NOx_abs="68.54" fuel_abs="55414.53" electricity_abs="0.00"/>
    </tripinfo>
    <tripinfo id="flow_0.35" depart="210.00" departLane="A4B4_0" departPos="4.60" departSpeed="0.00" departDelay="0.00" arrival="271.00" arrivalLane="E2D2_0" arrivalPos="85.60" arrivalSpeed="12.89" duration="61.00" routeLength="675.81" waitingTime="0.00" waitingCount="0" stopTime="0.00" timeLoss="10.50" rerouteNo="0" devices="tripinfo_flow_0.35 emissions_flow_0.35" vType="car" speedFactor="1.02" vaporized="">
        <emissions CO_abs="1816.36" CO2_abs="168048.53" HC_abs="12.27" PMx_abs="2.82" NOx_abs="66.92" fuel_abs="53615.44" electricity_abs="0.00"/>
    </tripinfo>
    <tripinfo id="flow_0.36" depart="216.00" departLane="A4B4_0" departPos="4.60" departSpeed="0.00" departDelay="0.00" arrival="278.00" arrivalLane="E2D2_0" arrivalPos="85.60" arrivalSpeed="12.79" duration="62.00" routeLength="675.81" waitingTime="0.00" waitingCount="0" stopTime="0.00" timeLoss="10.22" rerouteNo="0" devices="tripinfo_flow_0.36 emissions_flow_0.36" vType="car" speedFactor="0.97" vaporized="">
        <emissions CO_abs="1820.98" CO2_abs="165488.48" HC_abs="12.23" PMx_abs="2.84" NOx_abs="66.39" fuel_abs="52798.44" electricity_abs="0.00"/>
    </tripinfo>
    <tripinfo id="flow_0.37" depart="222.00" departLane="A4B4_0" departPos="4.60" departSpeed="0.00" departDelay="0.00" arrival="281.00" arrivalLane="E2D2_0" arrivalPos="85.60" arrivalSpeed="13.25" duration="59.00" routeLength="675.81" waitingTime="0.00" waitingCount="0" stopTime="0.00" timeLoss="9.41" rerouteNo="0" devices="tripinfo_flow_0.37 emissions_flow_0.37" vType="car" speedFactor="1.18" vaporized="">
        <emissions CO_abs="1702.61" CO2_abs="167543.01" HC_abs="11.66" PMx_abs="2.72" NOx_abs="66.07" fuel_abs="53454.57" electricity_abs="0.00"/>
    </tripinfo>
    <tripinfo id="flow_0.38" depart="228.00" departLane="A4B4_0" departPos="4.60" departSpeed="0.00" departDelay="0.00" arrival="286.00" arrivalLane="E2D2_0" arrivalPos="85.60" arrivalSpeed="13.05" duration="58.00" routeLength="675.81" waitingTime="0.00" waitingCount="0" stopTime="0.00" timeLoss="8.72" rerouteNo="0" devices="tripinfo_flow_0.38 emissions_flow_0.38" vType="car" speedFactor="1.10" vaporized="">
        <emissions CO_abs="1626.39" CO2_abs="163151.72" HC_abs="11.13" PMx_abs="2.63" NOx_abs="64.46" fuel_abs="52053.57" electricity_abs="0.00"/>
    </tripinfo>
    <tripinfo id="flow_0.39" depart="234.00" departLane="A4B4_0" departPos="4.60" departSpeed="0.00" departDelay="0.00" arrival="299.00" arrivalLane="E2D2_0" arrivalPos="85.60" arrivalSpeed="12.31" duration="65.00" routeLength="675.81" waitingTime="0.00" waitingCount="0" stopTime="0.00" timeLoss="9.54" rerouteNo="0" devices="tripinfo_flow_0.39 emissions_flow_0.39" vType="car" speedFactor="0.90" vaporized="">
        <emissions CO_abs="1805.92" CO2_abs="168057.52" HC_abs="12.24" PMx_abs="2.65" NOx_abs="65.72" fuel_abs="53618.49" electricity_abs="0.00"/>
    </tripinfo>
    <tripinfo id="flow_0.40" depart="240.00" departLane="A4B4_0" departPos="4.60" departSpeed="0.00" departDelay="0.00" arrival="301.00" arrivalLane="E2D2_0" arrivalPos="85.60" arrivalSpeed="12.73" duration="61.00" routeLength="675.81" waitingTime="0.00" waitingCount="0" stopTime="0.00" timeLoss="10.71" rerouteNo="0" devices="tripinfo_flow_0.40 emissions_flow_0.40" vType="car" speedFactor="1.03" vaporized="">
        <emissions CO_abs="1794.69" CO2_abs="165996.67" HC_abs="12.05" PMx_abs="2.77" NOx_abs="65.91" fuel_abs="52960.88" electricity_abs="0.00"/>
    </tripinfo>
    <tripinfo id="flow_0.41" depart="246.00" departLane="A4B4_0" departPos="4.60" departSpeed="0.00" departDelay="0.00" arrival="309.00" arrivalLane="E2D2_0" arrivalPos="85.60" arrivalSpeed="13.09" duration="63.00" routeLength="675.81" waitingTime="0.00" waitingCount="0" stopTime="0.00" timeLoss="11.10" rerouteNo="0" devices="tripinfo_flow_0.41 emissions_flow_0.41" vType="car" speedFactor="0.96" vaporized="">
        <emissions CO_abs="1828.71" CO2_abs="164985.99" HC_abs="12.18" PMx_abs="2.77" NOx_abs="65.46" fuel_abs="52638.30" electricity_abs="0.00"/>
    </tripinfo>
    <tripinfo id="flow_0.42" depart="252.00" departLane="A4B4_0" departPos="4.60" departSpeed="0.00" departDelay="0.00" arrival="312.00" arrivalLane="E2D2_0" arrivalPos="85.60" arrivalSpeed="13.82" duration="60.00" routeLength="675.81" waitingTime="0.00" waitingCount="0" stopTime="0.00" timeLoss="9.96" rerouteNo="0" devices="tripinfo_flow_0.42 emissions_flow_0.42" vType="car" speedFactor="1.09" vaporized="">
        <emissions CO_abs="1734.08" CO2_abs="167007.70" HC_abs="11.85" PMx_abs="2.77" NOx_abs="66.48" fuel_abs="53283.51" electricity_abs="0.00"/>
    </tripinfo>
    <tripinfo id="flow_0.43" depart="258.00" departLane="A4B4_0" departPos="4.60" departSpeed="0.00" departDelay="0.00" arrival="317.00" arrivalLane="E2D2_0" arrivalPos="85.60" arrivalSpeed="13.70" duration="59.00" routeLength="675.81" waitingTime="0.00" waitingCount="0" stopTime="0.00" timeLoss="9.78" rerouteNo="0" devices="tripinfo_flow_0.43 emissions_flow_0.43" vType="car" speedFactor="1.04" vaporized="">
        <emissions CO_abs="1798.00" CO2_abs="171789.44" HC_abs="12.15" PMx_abs="2.83" NOx_abs="68.16" fuel_abs="54809.19" electricity_abs="0.00"/>
    </tripinfo>
    <tripinfo id="flow_0.44" depart="264.00" departLane="A4B4_0" departPos="4.60" departSpeed="0.00" departDelay="0.00" arrival="323.00" arrivalLane="E2D2_0" arrivalPos="85.60" arrivalSpeed="12.96" duration="59.00" routeLength="675.81" waitingTime="0.00" waitingCount="0" stopTime="0.00" timeLoss="9.77" rerouteNo="0" devices="tripinfo_flow_0.44 emissions_flow_0.44" vType="car" speedFactor="1.04" vaporized="">
        <emissions CO_abs="1833.81" CO2_abs="171251.10" HC_abs="12.42" PMx_abs="2.92" NOx_abs="68.57" fuel_abs="54637.16" electricity_abs="0.00"/>
    </tripinfo>
    <tripinfo id="flow_0.45" depart="270.00" departLane="A4B4_0" departPos="4.60" departSpeed="0.00" departDelay="0.00" arrival="330.00" arrivalLane="E2D2_0" arrivalPos="85.60" arrivalSpeed="13.74" duration="60.00" routeLength="675.81" waitingTime="0.00" waitingCount="0" stopTime="0.00" timeLoss="10.78" rerouteNo="0" devices="tripinfo_flow_0.45 emissions_flow_0.45" vType="car" speedFactor="1.09" vaporized="">
        <emissions CO_abs="1835.55" CO2_abs="172093.80" HC_abs="12.40" PMx_abs="2.88" NOx_abs="68.42" fuel_abs="54906.18" electricity_abs="0.00"/>
    </tripinfo>
    <tripinfo id="flow_0.46" depart="276.00" departLane="A4B4_0" departPos="4.60" departSpeed="0.00" departDelay="0.00" arrival="338.00" arrivalLane="E2D2_0" arrivalPos="85.60" arrivalSpeed="12.59" duration="62.00" routeLength="675.81" waitingTime="0.00" waitingCount="0" stopTime="0.00" timeLoss="11.27" rerouteNo="0" devices="tripinfo_flow_0.46 emissions_flow_0.46" vType="car" speedFactor="1.00" vaporized="">
        <emissions CO_abs="1861.37" CO2_abs="172113.72" HC_abs="12.47" PMx_abs="2.87" NOx_abs="68.18" fuel_abs="54912.60" electricity_abs="0.00"/>
    </tripinfo>
    <tripinfo id="flow_0.47" depart="282.00" departLane="A4B4_0" departPos="4.60" departSpeed="0.00" departDelay="0.00" arrival="348.00" arrivalLane="E2D2_0" arrivalPos="85.60" arrivalSpeed="11.75" duration="66.00" routeLength="675.81" waitingTime="0.00" waitingCount="0" stopTime="0.00" timeLoss="10.29" rerouteNo="0" devices="tripinfo_flow_0.47 emissions_flow_0.47" vType="car" speedFactor="0.90" vaporized="">
        <emissions CO_abs="1890.80" CO2_abs="166391.64" HC_abs="12.58" PMx_abs="2.71" NOx_abs="65.44" fuel_abs="53086.72" electricity_abs="0.00"/>
    </tripinfo>
    <tripinfo id="flow_0.48" depart="288.00" departLane="A4B4_0" departPos="4.60" departSpeed="0.00" departDelay="0.00" arrival="356.00" arrivalLane="E2D2_0" arrivalPos="85.60" arrivalSpeed="11.63" duration="68.00" routeLength="675.81" waitingTime="0.00" waitingCount="0" stopTime="0.00" timeLoss="10.09" rerouteNo="0" devices="tripinfo_flow_0.48 emissions_flow_0.48" vType="car" speedFactor="0.88" vaporized="">
        <emissions CO_abs="1887.12" CO2_abs="164926.55" HC_abs="12.54" PMx_abs="2.68" NOx_abs="64.86" fuel_abs="52619.24" electricity_abs="0.00"/>
    </tripinfo>
    <tripinfo id="flow_0.49" depart="294.00" departLane="A4B4_0" departPos="4.60" departSpeed="0.00" departDelay="0.00" arrival="362.00" arrivalLane="E2D2_0" arrivalPos="85.60" arrivalSpeed="11.59" duration="68.00" routeLength="675.81" waitingTime="0.00" waitingCount="0" stopTime="0.00" timeLoss="9.40" rerouteNo="0" devices="tripinfo_flow_0.49 emissions_flow_0.49" vType="car" speedFactor="0.85" vaporized="">
        <emissions CO_abs="1897.64" CO2_abs="166702.58" HC_abs="12.67" PMx_abs="2.74" NOx_abs="65.99" fuel_abs="53185.73" electricity_abs="0.00"/>
    </tripinfo>