<?xml version="1.0" encoding="UTF-8"?>

<!-- generated on 2025-11-04 16:03:36 by Eclipse SUMO GUI Version 1.24.0
<sumoConfiguration xmlns:xsi="http://www.w3.org/2001/XMLSchema-instance" xsi:noNamespaceSchemaLocation="http://sumo.dlr.de/xsd/sumoConfiguration.xsd">

    <input>
        <net-file value="D:\Rafa\A1 Mestrado\Obsidian-Masters-Degree\1o Ano\MS\automate_sumo\core\manhattan.net.xml"/>
        <route-files value="D:\Rafa\A1 Mestrado\Obsidian-Masters-Degree\1o Ano\MS\automate_sumo\core\flows.rou.xml"/>
        <additional-files value="D:\Rafa\A1 Mestrado\Obsidian-Masters-Degree\1o Ano\MS\automate_sumo\core\manhattan.add.xml"/>
    </input>

    <output>
        <emission-output value="D:\Rafa\A1 Mestrado\Obsidian-Masters-Degree\1o Ano\MS\automate_sumo\core\1iter/emissions.xml"/>
        <summary-output value="D:\Rafa\A1 Mestrado\Obsidian-Masters-Degree\1o Ano\MS\automate_sumo\core\1iter/summary.xml"/>
        <tripinfo-output value="D:\Rafa\A1 Mestrado\Obsidian-Masters-Degree\1o Ano\MS\automate_sumo\core\1iter/tripinfo.xml"/>
    </output>

    <time>
        <begin value="0"/>
        <end value="3600"/>
    </time>

    <report>
        <verbose value="true"/>
        <no-step-log value="false"/>
    </report>

</sumoConfiguration>
-->

<tripinfos xmlns:xsi="http://www.w3.org/2001/XMLSchema-instance" xsi:noNamespaceSchemaLocation="http://sumo.dlr.de/xsd/tripinfo_file.xsd">
    <tripinfo id="flow_0.0" depart="0.00" departLane="A4B4_0" departPos="4.60" departSpeed="0.00" departDelay="0.00" arrival="59.00" arrivalLane="E2D2_0" arrivalPos="85.60" arrivalSpeed="13.64" duration="59.00" routeLength="675.81" waitingTime="0.00" waitingCount="0" stopTime="0.00" timeLoss="9.65" rerouteNo="0" devices="tripinfo_flow_0.0 emissions_flow_0.0" vType="car" speedFactor="1.06" vaporized="">
        <emissions CO_abs="1826.86" CO2_abs="170305.68" HC_abs="12.37" PMx_abs="2.89" NOx_abs="68.15" fuel_abs="54335.52" electricity_abs="0.00"/>
    </tripinfo>
    <tripinfo id="flow_0.1" depart="6.00" departLane="A4B4_0" departPos="4.60" departSpeed="0.00" departDelay="0.00" arrival="65.00" arrivalLane="E2D2_0" arrivalPos="85.60" arrivalSpeed="13.78" duration="59.00" routeLength="675.81" waitingTime="0.00" waitingCount="0" stopTime="0.00" timeLoss="9.83" rerouteNo="0" devices="tripinfo_flow_0.1 emissions_flow_0.1" vType="car" speedFactor="1.01" vaporized="">
        <emissions CO_abs="1758.07" CO2_abs="170848.04" HC_abs="11.91" PMx_abs="2.80" NOx_abs="67.30" fuel_abs="54509.10" electricity_abs="0.00"/>
    </tripinfo>
    <tripinfo id="flow_0.2" depart="12.00" departLane="A4B4_0" departPos="4.60" departSpeed="0.00" departDelay="0.00" arrival="72.00" arrivalLane="E2D2_0" arrivalPos="85.60" arrivalSpeed="13.48" duration="60.00" routeLength="675.81" waitingTime="0.00" waitingCount="0" stopTime="0.00" timeLoss="9.96" rerouteNo="0" devices="tripinfo_flow_0.2 emissions_flow_0.2" vType="car" speedFactor="1.03" vaporized="">
        <emissions CO_abs="1828.61" CO2_abs="173344.37" HC_abs="12.40" PMx_abs="2.93" NOx_abs="69.48" fuel_abs="55305.03" electricity_abs="0.00"/>
    </tripinfo>
    <tripinfo id="flow_1.0" depart="0.00" departLane="A2A3_0" departPos="7.60" departSpeed="0.00" departDelay="0.00" arrival="78.00" arrivalLane="C0B0_0" arrivalPos="85.60" arrivalSpeed="8.90" duration="78.00" routeLength="661.89" waitingTime="0.00" waitingCount="0" stopTime="0.00" timeLoss="9.95" rerouteNo="0" devices="tripinfo_flow_1.0 emissions_flow_1.0" vType="bus" speedFactor="0.94" vaporized="">
        <emissions CO_abs="2163.13" CO2_abs="155920.50" HC_abs="13.58" PMx_abs="2.74" NOx_abs="62.34" fuel_abs="49744.85" electricity_abs="0.00"/>
    </tripinfo>
    <tripinfo id="flow_0.3" depart="18.00" departLane="A4B4_0" departPos="4.60" departSpeed="0.00" departDelay="0.00" arrival="79.00" arrivalLane="E2D2_0" arrivalPos="85.60" arrivalSpeed="13.81" duration="61.00" routeLength="675.81" waitingTime="0.00" waitingCount="0" stopTime="0.00" timeLoss="10.48" rerouteNo="0" devices="tripinfo_flow_0.3 emissions_flow_0.3" vType="car" speedFactor="1.05" vaporized="">
        <emissions CO_abs="1925.13" CO2_abs="181222.49" HC_abs="13.03" PMx_abs="2.99" NOx_abs="71.84" fuel_abs="57818.74" electricity_abs="0.00"/>
    </tripinfo>
    <tripinfo id="flow_1.1" depart="6.00" departLane="A2A3_0" departPos="7.60" departSpeed="0.00" departDelay="0.00" arrival="83.00" arrivalLane="C0B0_0" arrivalPos="85.60" arrivalSpeed="9.93" duration="77.00" routeLength="661.89" waitingTime="0.00" waitingCount="0" stopTime="0.00" timeLoss="8.95" rerouteNo="0" devices="tripinfo_flow_1.1 emissions_flow_1.1" vType="bus" speedFactor="1.08" vaporized="">
        <emissions CO_abs="2146.81" CO2_abs="159411.04" HC_abs="13.52" PMx_abs="2.58" NOx_abs="61.90" fuel_abs="50859.05" electricity_abs="0.00"/>
    </tripinfo>
    <tripinfo id="flow_0.4" depart="24.00" departLane="A4B4_0" departPos="4.60" departSpeed="0.00" departDelay="0.00" arrival="87.00" arrivalLane="E2D2_0" arrivalPos="85.60" arrivalSpeed="12.87" duration="63.00" routeLength="675.81" waitingTime="0.00" waitingCount="0" stopTime="0.00" timeLoss="9.63" rerouteNo="0" devices="tripinfo_flow_0.4 emissions_flow_0.4" vType="car" speedFactor="0.94" vaporized="">
        <emissions CO_abs="1908.34" CO2_abs="171780.20" HC_abs="12.76" PMx_abs="2.89" NOx_abs="68.47" fuel_abs="54805.82" electricity_abs="0.00"/>
    </tripinfo>
    <tripinfo id="flow_0.5" depart="30.00" departLane="A4B4_0" departPos="4.60" departSpeed="0.00" departDelay="0.00" arrival="90.00" arrivalLane="E2D2_0" arrivalPos="85.60" arrivalSpeed="12.86" duration="60.00" routeLength="675.81" waitingTime="0.00" waitingCount="0" stopTime="0.00" timeLoss="10.10" rerouteNo="0" devices="tripinfo_flow_0.5 emissions_flow_0.5" vType="car" speedFactor="1.09" vaporized="">
        <emissions CO_abs="1719.98" CO2_abs="166949.90" HC_abs="11.89" PMx_abs="2.76" NOx_abs="66.55" fuel_abs="53264.99" electricity_abs="0.00"/>
    </tripinfo>
    <tripinfo id="flow_1.2" depart="12.00" departLane="A2A3_0" departPos="7.60" departSpeed="0.00" departDelay="0.00" arrival="92.00" arrivalLane="C0B0_0" arrivalPos="85.60" arrivalSpeed="9.36" duration="80.00" routeLength="661.89" waitingTime="0.00" waitingCount="0" stopTime="0.00" timeLoss="11.80" rerouteNo="0" devices="tripinfo_flow_1.2 emissions_flow_1.2" vType="bus" speedFactor="0.83" vaporized="">
        <emissions CO_abs="2508.31" CO2_abs="168370.27" HC_abs="15.42" PMx_abs="3.04" NOx_abs="67.31" fuel_abs="53716.57" electricity_abs="0.00"/>
    </tripinfo>
    <tripinfo id="flow_0.6" depart="36.00" departLane="A4B4_0" departPos="4.60" departSpeed="0.00" departDelay="0.00" arrival="95.00" arrivalLane="E2D2_0" arrivalPos="85.60" arrivalSpeed="13.06" duration="59.00" routeLength="675.81" waitingTime="0.00" waitingCount="0" stopTime="0.00" timeLoss="9.22" rerouteNo="0" devices="tripinfo_flow_0.6 emissions_flow_0.6" vType="car" speedFactor="1.05" vaporized="">
        <emissions CO_abs="1703.54" CO2_abs="167136.59" HC_abs="11.62" PMx_abs="2.69" NOx_abs="65.59" fuel_abs="53325.02" electricity_abs="0.00"/>
    </tripinfo>
    <tripinfo id="flow_1.3" depart="18.00" departLane="A2A3_0" departPos="7.60" departSpeed="0.00" departDelay="0.00" arrival="98.00" arrivalLane="C0B0_0" arrivalPos="85.60" arrivalSpeed="9.06" duration="80.00" routeLength="661.89" waitingTime="0.00" waitingCount="0" stopTime="0.00" timeLoss="11.79" rerouteNo="0" devices="tripinfo_flow_1.3 emissions_flow_1.3" vType="bus" speedFactor="0.89" vaporized="">
        <emissions CO_abs="2469.97" CO2_abs="170879.12" HC_abs="15.32" PMx_abs="3.06" NOx_abs="68.38" fuel_abs="54517.07" electricity_abs="0.00"/>
    </tripinfo>
    <tripinfo id="flow_0.7" depart="42.00" departLane="A4B4_0" departPos="4.60" departSpeed="0.00" departDelay="0.00" arrival="102.00" arrivalLane="E2D2_0" arrivalPos="85.60" arrivalSpeed="13.71" duration="60.00" routeLength="675.81" waitingTime="0.00" waitingCount="0" stopTime="0.00" timeLoss="9.55" rerouteNo="0" devices="tripinfo_flow_0.7 emissions_flow_0.7" vType="car" speedFactor="0.99" vaporized="">
        <emissions CO_abs="1856.90" CO2_abs="172510.66" HC_abs="12.59" PMx_abs="2.92" NOx_abs="68.99" fuel_abs="55038.98" electricity_abs="0.00"/>
    </tripinfo>
    <tripinfo id="flow_1.4" depart="24.00" departLane="A2A3_0" departPos="7.60" departSpeed="0.00" departDelay="0.00" arrival="103.00" arrivalLane="C0B0_0" arrivalPos="85.60" arrivalSpeed="9.69" duration="79.00" routeLength="661.89" waitingTime="0.00" waitingCount="0" stopTime="0.00" timeLoss="10.32" rerouteNo="0" devices="tripinfo_flow_1.4 emissions_flow_1.4" vType="bus" speedFactor="0.86" vaporized="">
        <emissions CO_abs="2280.68" CO2_abs="163070.01" HC_abs="14.22" PMx_abs="2.73" NOx_abs="63.76" fuel_abs="52026.19" electricity_abs="0.00"/>
    </tripinfo>
    <tripinfo id="flow_1.5" depart="30.00" departLane="A2A3_0" departPos="7.60" departSpeed="0.00" departDelay="0.00" arrival="107.00" arrivalLane="C0B0_0" arrivalPos="85.60" arrivalSpeed="8.90" duration="77.00" routeLength="661.89" waitingTime="0.00" waitingCount="0" stopTime="0.00" timeLoss="9.23" rerouteNo="0" devices="tripinfo_flow_1.5 emissions_flow_1.5" vType="bus" speedFactor="1.03" vaporized="">
        <emissions CO_abs="2171.06" CO2_abs="159278.96" HC_abs="13.68" PMx_abs="2.73" NOx_abs="63.09" fuel_abs="50816.55" electricity_abs="0.00"/>
    </tripinfo>
    <tripinfo id="flow_1.6" depart="36.00" departLane="A2A3_0" departPos="7.60" departSpeed="0.00" departDelay="0.00" arrival="112.00" arrivalLane="C0B0_0" arrivalPos="85.60" arrivalSpeed="9.31" duration="76.00" routeLength="661.89" waitingTime="0.00" waitingCount="0" stopTime="0.00" timeLoss="8.38" rerouteNo="0" devices="tripinfo_flow_1.6 emissions_flow_1.6" vType="bus" speedFactor="1.12" vaporized="">
        <emissions CO_abs="2270.33" CO2_abs="170095.84" HC_abs="14.35" PMx_abs="2.78" NOx_abs="66.39" fuel_abs="54267.92" electricity_abs="0.00"/>
    </tripinfo>
    <tripinfo id="flow_0.8" depart="48.00" departLane="A4B4_0" departPos="4.60" departSpeed="0.00" departDelay="0.00" arrival="113.00" arrivalLane="E2D2_0" arrivalPos="85.60" arrivalSpeed="11.61" duration="65.00" routeLength="675.81" waitingTime="0.00" waitingCount="0" stopTime="0.00" timeLoss="8.90" rerouteNo="0" devices="tripinfo_flow_0.8 emissions_flow_0.8" vType="car" speedFactor="0.88" vaporized="">
        <emissions CO_abs="1746.66" CO2_abs="162578.05" HC_abs="11.87" PMx_abs="2.55" NOx_abs="63.51" fuel_abs="51870.25" electricity_abs="0.00"/>
    </tripinfo>
    <tripinfo id="flow_0.9" depart="54.00" departLane="A4B4_0" departPos="4.60" departSpeed="0.00" departDelay="0.00" arrival="118.00" arrivalLane="E2D2_0" arrivalPos="85.60" arrivalSpeed="11.75" duration="64.00" routeLength="675.81" waitingTime="0.00" waitingCount="0" stopTime="0.00" timeLoss="10.81" rerouteNo="0" devices="tripinfo_flow_0.9 emissions_flow_0.9" vType="car" speedFactor="0.94" vaporized="">
        <emissions CO_abs="1737.78" CO2_abs="157624.28" HC_abs="11.58" PMx_abs="2.55" NOx_abs="61.84" fuel_abs="50289.73" electricity_abs="0.00"/>
    </tripinfo>
    <tripinfo id="flow_1.7" depart="42.00" departLane="A2A3_0" departPos="7.60" departSpeed="0.00" departDelay="0.00" arrival="121.00" arrivalLane="C0B0_0" arrivalPos="85.60" arrivalSpeed="9.42" duration="79.00" routeLength="661.89" waitingTime="0.00" waitingCount="0" stopTime="0.00" timeLoss="9.73" rerouteNo="0" devices="tripinfo_flow_1.7 emissions_flow_1.7" vType="bus" speedFactor="0.93" vaporized="">
        <emissions CO_abs="2228.08" CO2_abs="162541.41" HC_abs="14.00" PMx_abs="2.76" NOx_abs="64.18" fuel_abs="51857.44" electricity_abs="0.00"/>
    </tripinfo>
    <tripinfo id="flow_0.10" depart="60.00" departLane="A4B4_0" departPos="4.60" departSpeed="0.00" departDelay="0.00" arrival="121.00" arrivalLane="E2D2_0" arrivalPos="85.60" arrivalSpeed="12.91" duration="61.00" routeLength="675.81" waitingTime="0.00" waitingCount="0" stopTime="0.00" timeLoss="11.08" rerouteNo="0" devices="tripinfo_flow_0.10 emissions_flow_0.10" vType="car" speedFactor="1.02" vaporized="">
        <emissions CO_abs="1808.85" CO2_abs="163442.52" HC_abs="12.16" PMx_abs="2.84" NOx_abs="65.96" fuel_abs="52145.55" electricity_abs="0.00"/>
    </tripinfo>
    <tripinfo id="flow_1.8" depart="48.00" departLane="A2A3_0" departPos="7.60" departSpeed="0.00" departDelay="0.00" arrival="127.00" arrivalLane="C0B0_0" arrivalPos="85.60" arrivalSpeed="8.94" duration="79.00" routeLength="661.89" waitingTime="0.00" waitingCount="0" stopTime="0.00" timeLoss="10.41" rerouteNo="0" devices="tripinfo_flow_1.8 emissions_flow_1.8" vType="bus" speedFactor="0.94" vaporized="">
        <emissions CO_abs="2309.44" CO2_abs="161455.08" HC_abs="14.33" PMx_abs="2.77" NOx_abs="63.60" fuel_abs="51510.75" electricity_abs="0.00"/>
    </tripinfo>
    <tripinfo id="flow_0.11" depart="66.00" departLane="A4B4_0" departPos="4.60" departSpeed="0.00" departDelay="0.00" arrival="127.00" arrivalLane="E2D2_0" arrivalPos="85.60" arrivalSpeed="13.46" duration="61.00" routeLength="675.81" waitingTime="0.00" waitingCount="0" stopTime="0.00" timeLoss="9.44" rerouteNo="0" devices="tripinfo_flow_0.11 emissions_flow_0.11" vType="car" speedFactor="0.97" vaporized="">
        <emissions CO_abs="1797.61" CO2_abs="167560.40" HC_abs="12.12" PMx_abs="2.80" NOx_abs="66.71" fuel_abs="53459.72" electricity_abs="0.00"/>
    </tripinfo>
    <tripinfo id="flow_1.9" depart="54.00" departLane="A2A3_0" departPos="7.60" departSpeed="0.00" departDelay="0.00" arrival="131.00" arrivalLane="C0B0_0" arrivalPos="85.60" arrivalSpeed="9.12" duration="77.00" routeLength="661.89" waitingTime="0.00" waitingCount="0" stopTime="0.00" timeLoss="9.29" rerouteNo="0" devices="tripinfo_flow_1.9 emissions_flow_1.9" vType="bus" speedFactor="1.16" vaporized="">
        <emissions CO_abs="2312.97" CO2_abs="170502.09" HC_abs="14.58" PMx_abs="2.87" NOx_abs="67.16" fuel_abs="54397.30" electricity_abs="0.00"/>
    </tripinfo>
    <tripinfo id="flow_1.10" depart="60.00" departLane="A2A3_0" departPos="7.60" departSpeed="0.00" departDelay="0.00" arrival="139.00" arrivalLane="C0B0_0" arrivalPos="85.60" arrivalSpeed="9.15" duration="79.00" routeLength="661.89" waitingTime="0.00" waitingCount="0" stopTime="0.00" timeLoss="10.82" rerouteNo="0" devices="tripinfo_flow_1.10 emissions_flow_1.10" vType="bus" speedFactor="1.01" vaporized="">
        <emissions CO_abs="2335.46" CO2_abs="161549.22" HC_abs="14.51" PMx_abs="2.95" NOx_abs="65.18" fuel_abs="51540.33" electricity_abs="0.00"/>
    </tripinfo>
    <tripinfo id="flow_0.12" depart="72.00" departLane="A4B4_0" departPos="4.60" departSpeed="0.00" departDelay="0.00" arrival="142.00" arrivalLane="E2D2_0" arrivalPos="85.60" arrivalSpeed="10.44" duration="70.00" routeLength="675.81" waitingTime="0.00" waitingCount="0" stopTime="0.00" timeLoss="9.45" rerouteNo="0" devices="tripinfo_flow_0.12 emissions_flow_0.12" vType="car" speedFactor="0.83" vaporized="">
        <emissions CO_abs="1812.99" CO2_abs="157103.31" HC_abs="12.04" PMx_abs="2.55" NOx_abs="61.89" fuel_abs="50123.14" electricity_abs="0.00"/>
    </tripinfo>
    <tripinfo id="flow_0.13" depart="78.00" departLane="A4B4_0" departPos="4.60" departSpeed="0.00" departDelay="0.00" arrival="144.00" arrivalLane="E2D2_0" arrivalPos="85.60" arrivalSpeed="11.97" duration="66.00" routeLength="675.81" waitingTime="0.00" waitingCount="0" stopTime="0.00" timeLoss="11.06" rerouteNo="0" devices="tripinfo_flow_0.13 emissions_flow_0.13" vType="car" speedFactor="0.92" vaporized="">
        <emissions CO_abs="1941.16" CO2_abs="166105.29" HC_abs="12.87" PMx_abs="2.87" NOx_abs="66.66" fuel_abs="52994.92" electricity_abs="0.00"/>
    </tripinfo>
    <tripinfo id="flow_1.11" depart="66.00" departLane="A2A3_0" departPos="7.60" departSpeed="0.00" departDelay="0.00" arrival="146.00" arrivalLane="C0B0_0" arrivalPos="85.60" arrivalSpeed="9.78" duration="80.00" routeLength="661.89" waitingTime="0.00" waitingCount="0" stopTime="0.00" timeLoss="10.69" rerouteNo="0" devices="tripinfo_flow_1.11 emissions_flow_1.11" vType="bus" speedFactor="0.89" vaporized="">
        <emissions CO_abs="2452.72" CO2_abs="172809.12" HC_abs="15.25" PMx_abs="2.95" NOx_abs="67.96" fuel_abs="55133.21" electricity_abs="0.00"/>
    </tripinfo>
    <tripinfo id="flow_0.14" depart="84.00" departLane="A4B4_0" departPos="4.60" departSpeed="0.00" departDelay="0.00" arrival="146.00" arrivalLane="E2D2_0" arrivalPos="85.60" arrivalSpeed="13.33" duration="62.00" routeLength="675.81" waitingTime="0.00" waitingCount="0" stopTime="0.00" timeLoss="11.81" rerouteNo="0" devices="tripinfo_flow_0.14 emissions_flow_0.14" vType="car" speedFactor="1.13" vaporized="">
        <emissions CO_abs="1835.40" CO2_abs="173524.27" HC_abs="12.36" PMx_abs="2.81" NOx_abs="68.27" fuel_abs="55362.80" electricity_abs="0.00"/>
    </tripinfo>
    <tripinfo id="flow_0.15" depart="90.00" departLane="A4B4_0" departPos="4.60" departSpeed="0.00" departDelay="0.00" arrival="149.00" arrivalLane="E2D2_0" arrivalPos="85.60" arrivalSpeed="13.63" duration="59.00" routeLength="675.81" waitingTime="0.00" waitingCount="0" stopTime="0.00" timeLoss="9.66" rerouteNo="0" devices="tripinfo_flow_0.15 emissions_flow_0.15" vType="car" speedFactor="1.18" vaporized="">
        <emissions CO_abs="1660.61" CO2_abs="168495.06" HC_abs="11.47" PMx_abs="2.65" NOx_abs="65.90" fuel_abs="53758.55" electricity_abs="0.00"/>
    </tripinfo>
    <tripinfo id="flow_1.12" depart="72.00" departLane="A2A3_0" departPos="7.60" departSpeed="0.00" departDelay="0.00" arrival="153.00" arrivalLane="C0B0_0" arrivalPos="85.60" arrivalSpeed="9.77" duration="81.00" routeLength="661.89" waitingTime="0.00" waitingCount="0" stopTime="0.00" timeLoss="11.59" rerouteNo="0" devices="tripinfo_flow_1.12 emissions_flow_1.12" vType="bus" speedFactor="0.87" vaporized="">
        <emissions CO_abs="2601.61" CO2_abs="175057.83" HC_abs="16.00" PMx_abs="3.13" NOx_abs="69.72" fuel_abs="55850.24" electricity_abs="0.00"/>
    </tripinfo>
    <tripinfo id="flow_1.13" depart="78.00" departLane="A2A3_0" departPos="7.60" departSpeed="0.00" departDelay="0.00" arrival="156.00" arrivalLane="C0B0_0" arrivalPos="85.60" arrivalSpeed="8.99" duration="78.00" routeLength="661.89" waitingTime="0.00" waitingCount="0" stopTime="0.00" timeLoss="9.80" rerouteNo="0" devices="tripinfo_flow_1.13 emissions_flow_1.13" vType="bus" speedFactor="0.95" vaporized="">
        <emissions CO_abs="2303.19" CO2_abs="165948.88" HC_abs="14.46" PMx_abs="2.92" NOx_abs="66.34" fuel_abs="52944.31" electricity_abs="0.00"/>
    </tripinfo>
    <tripinfo id="flow_0.16" depart="96.00" departLane="A4B4_0" departPos="4.60" departSpeed="0.00" departDelay="0.00" arrival="157.00" arrivalLane="E2D2_0" arrivalPos="85.60" arrivalSpeed="13.13" duration="61.00" routeLength="675.81" waitingTime="0.00" waitingCount="0" stopTime="0.00" timeLoss="10.43" rerouteNo="0" devices="tripinfo_flow_0.16 emissions_flow_0.16" vType="car" speedFactor="1.01" vaporized="">
        <emissions CO_abs="1922.30" CO2_abs="173109.44" HC_abs="12.98" PMx_abs="3.01" NOx_abs="69.95" fuel_abs="55229.69" electricity_abs="0.00"/>
    </tripinfo>
    <tripinfo id="flow_1.14" depart="84.00" departLane="A2A3_0" departPos="7.60" departSpeed="0.00" departDelay="0.00" arrival="162.00" arrivalLane="C0B0_0" arrivalPos="85.60" arrivalSpeed="9.95" duration="78.00" routeLength="661.89" waitingTime="0.00" waitingCount="0" stopTime="0.00" timeLoss="10.02" rerouteNo="0" devices="tripinfo_flow_1.14 emissions_flow_1.14" vType="bus" speedFactor="0.93" vaporized="">
        <emissions CO_abs="2324.03" CO2_abs="163811.96" HC_abs="14.47" PMx_abs="2.85" NOx_abs="64.93" fuel_abs="52262.61" electricity_abs="0.00"/>
    </tripinfo>
    <tripinfo id="flow_0.17" depart="102.00" departLane="A4B4_0" departPos="4.60" departSpeed="0.00" departDelay="0.00" arrival="163.00" arrivalLane="E2D2_0" arrivalPos="85.60" arrivalSpeed="13.62" duration="61.00" routeLength="675.81" waitingTime="0.00" waitingCount="0" stopTime="0.00" timeLoss="10.92" rerouteNo="0" devices="tripinfo_flow_0.17 emissions_flow_0.17" vType="car" speedFactor="0.99" vaporized="">
        <emissions CO_abs="1948.71" CO2_abs="174618.06" HC_abs="13.05" PMx_abs="3.02" NOx_abs="70.11" fuel_abs="55711.17" electricity_abs="0.00"/>
    </tripinfo>
    <tripinfo id="flow_1.15" depart="90.00" departLane="A2A3_0" departPos="7.60" departSpeed="0.00" departDelay="0.00" arrival="166.00" arrivalLane="C0B0_0" arrivalPos="85.60" arrivalSpeed="8.91" duration="76.00" routeLength="661.89" waitingTime="0.00" waitingCount="0" stopTime="0.00" timeLoss="9.15" rerouteNo="0" devices="tripinfo_flow_1.15 emissions_flow_1.15" vType="bus" speedFactor="1.15" vaporized="">
        <emissions CO_abs="2092.93" CO2_abs="155680.60" HC_abs="13.20" PMx_abs="2.54" NOx_abs="60.62" fuel_abs="49668.85" electricity_abs="0.00"/>
    </tripinfo>
    <tripinfo id="flow_0.18" depart="108.00" departLane="A4B4_0" departPos="4.60" departSpeed="0.00" departDelay="0.00" arrival="169.00" arrivalLane="E2D2_0" arrivalPos="85.60" arrivalSpeed="13.34" duration="61.00" routeLength="675.81" waitingTime="0.00" waitingCount="0" stopTime="0.00" timeLoss="9.68" rerouteNo="0" devices="tripinfo_flow_0.18 emissions_flow_0.18" vType="car" speedFactor="0.97" vaporized="">
        <emissions CO_abs="1790.56" CO2_abs="169731.28" HC_abs="12.19" PMx_abs="2.80" NOx_abs="67.43" fuel_abs="54152.39" electricity_abs="0.00"/>
    </tripinfo>
    <tripinfo id="flow_0.19" depart="114.00" departLane="A4B4_0" departPos="4.60" departSpeed="0.00" departDelay="0.00" arrival="173.00" arrivalLane="E2D2_0" arrivalPos="85.60" arrivalSpeed="12.99" duration="59.00" routeLength="675.81" waitingTime="0.00" waitingCount="0" stopTime="0.00" timeLoss="9.66" rerouteNo="0" devices="tripinfo_flow_0.19 emissions_flow_0.19" vType="car" speedFactor="1.10" vaporized="">
        <emissions CO_abs="1850.89" CO2_abs="172388.03" HC_abs="12.66" PMx_abs="2.96" NOx_abs="69.49" fuel_abs="54999.67" electricity_abs="0.00"/>
    </tripinfo>
    <tripinfo id="flow_1.16" depart="96.00" departLane="A2A3_0" departPos="7.60" departSpeed="0.00" departDelay="0.00" arrival="174.00" arrivalLane="C0B0_0" arrivalPos="85.60" arrivalSpeed="9.62" duration="78.00" routeLength="661.89" waitingTime="0.00" waitingCount="0" stopTime="0.00" timeLoss="11.05" rerouteNo="0" devices="tripinfo_flow_1.16 emissions_flow_1.16" vType="bus" speedFactor="1.17" vaporized="">
        <emissions CO_abs="2378.23" CO2_abs="171133.39" HC_abs="14.87" PMx_abs="2.87" NOx_abs="67.09" fuel_abs="54598.71" electricity_abs="0.00"/>
    </tripinfo>
    <tripinfo id="flow_0.20" depart="120.00" departLane="A4B4_0" departPos="4.60" departSpeed="0.00" departDelay="0.00" arrival="180.00" arrivalLane="E2D2_0" arrivalPos="85.60" arrivalSpeed="13.20" duration="60.00" routeLength="675.81" waitingTime="0.00" waitingCount="0" stopTime="0.00" timeLoss="10.11" rerouteNo="0" devices="tripinfo_flow_0.20 emissions_flow_0.20" vType="car" speedFactor="1.03" vaporized="">
        <emissions CO_abs="1896.31" CO2_abs="171812.47" HC_abs="12.75" PMx_abs="2.97" NOx_abs="68.98" fuel_abs="54816.10" electricity_abs="0.00"/>
    </tripinfo>
    <tripinfo id="flow_1.17" depart="102.00" departLane="A2A3_0" departPos="7.60" departSpeed="0.00" departDelay="0.00" arrival="181.00" arrivalLane="C0B0_0" arrivalPos="85.60" arrivalSpeed="8.72" duration="79.00" routeLength="661.89" waitingTime="0.00" waitingCount="0" stopTime="0.00" timeLoss="10.77" rerouteNo="0" devices="tripinfo_flow_1.17 emissions_flow_1.17" vType="bus" speedFactor="1.02" vaporized="">
        <emissions CO_abs="2314.56" CO2_abs="162172.91" HC_abs="14.39" PMx_abs="2.84" NOx_abs="64.43" fuel_abs="51739.63" electricity_abs="0.00"/>
    </tripinfo>
    <tripinfo id="flow_1.18" depart="108.00" departLane="A2A3_0" departPos="7.60" departSpeed="0.00" departDelay="0.00" arrival="184.00" arrivalLane="C0B0_0" arrivalPos="85.60" arrivalSpeed="9.75" duration="76.00" routeLength="661.89" waitingTime="0.00" waitingCount="0" stopTime="0.00" timeLoss="8.95" rerouteNo="0" devices="tripinfo_flow_1.18 emissions_flow_1.18" vType="bus" speedFactor="1.18" vaporized="">
        <emissions CO_abs="2266.39" CO2_abs="166311.93" HC_abs="14.26" PMx_abs="2.80" NOx_abs="65.45" fuel_abs="53060.47" electricity_abs="0.00"/>
    </tripinfo>
    <tripinfo id="flow_0.21" depart="126.00" departLane="A4B4_0" departPos="4.60" departSpeed="0.00" departDelay="0.00" arrival="185.00" arrivalLane="E2D2_0" arrivalPos="85.60" arrivalSpeed="13.86" duration="59.00" routeLength="675.81" waitingTime="0.00" waitingCount="0" stopTime="0.00" timeLoss="9.67" rerouteNo="0" devices="tripinfo_flow_0.21 emissions_flow_0.21" vType="car" speedFactor="1.09" vaporized="">
        <emissions CO_abs="1903.55" CO2_abs="173544.54" HC_abs="12.84" PMx_abs="3.04" NOx_abs="70.25" fuel_abs="55368.57" electricity_abs="0.00"/>
    </tripinfo>
    <tripinfo id="flow_0.22" depart="132.00" departLane="A4B4_0" departPos="4.60" departSpeed="0.00" departDelay="0.00" arrival="191.00" arrivalLane="E2D2_0" arrivalPos="85.60" arrivalSpeed="13.02" duration="59.00" routeLength="675.81" waitingTime="0.00" waitingCount="0" stopTime="0.00" timeLoss="9.85" rerouteNo="0" devices="tripinfo_flow_0.22 emissions_flow_0.22" vType="car" speedFactor="1.04" vaporized="">
        <emissions CO_abs="1792.65" CO2_abs="167424.40" HC_abs="12.21" PMx_abs="2.88" NOx_abs="67.40" fuel_abs="53416.10" electricity_abs="0.00"/>
    </tripinfo>
    <tripinfo id="flow_1.19" depart="114.00" departLane="A2A3_0" departPos="7.60" departSpeed="0.00" departDelay="0.00" arrival="193.00" arrivalLane="C0B0_0" arrivalPos="85.60" arrivalSpeed="9.52" duration="79.00" routeLength="661.89" waitingTime="0.00" waitingCount="0" stopTime="0.00" timeLoss="10.11" rerouteNo="0" devices="tripinfo_flow_1.19 emissions_flow_1.19" vType="bus" speedFactor="0.90" vaporized="">
        <emissions CO_abs="2369.13" CO2_abs="166594.18" HC_abs="14.72" PMx_abs="2.84" NOx_abs="65.51" fuel_abs="53150.39" electricity_abs="0.00"/>
    </tripinfo>
    <tripinfo id="flow_1.20" depart="120.00" departLane="A2A3_0" departPos="7.60" departSpeed="0.00" departDelay="0.00" arrival="197.00" arrivalLane="C0B0_0" arrivalPos="85.60" arrivalSpeed="9.80" duration="77.00" routeLength="661.89" waitingTime="0.00" waitingCount="0" stopTime="0.00" timeLoss="8.93" rerouteNo="0" devices="tripinfo_flow_1.20 emissions_flow_1.20" vType="bus" speedFactor="0.96" vaporized="">
        <emissions CO_abs="2159.19" CO2_abs="158859.08" HC_abs="13.62" PMx_abs="2.74" NOx_abs="63.13" fuel_abs="50682.55" electricity_abs="0.00"/>
    </tripinfo>
    <tripinfo id="flow_0.23" depart="138.00" departLane="A4B4_0" departPos="4.60" departSpeed="0.00" departDelay="0.00" arrival="199.00" arrivalLane="E2D2_0" arrivalPos="85.60" arrivalSpeed="13.84" duration="61.00" routeLength="675.81" waitingTime="0.00" waitingCount="0" stopTime="0.00" timeLoss="10.28" rerouteNo="0" devices="tripinfo_flow_0.23 emissions_flow_0.23" vType="car" speedFactor="1.00" vaporized="">
        <emissions CO_abs="2048.99" CO2_abs="184446.10" HC_abs="13.76" PMx_abs="3.22" NOx_abs="74.35" fuel_abs="58846.71" electricity_abs="0.00"/>
    </tripinfo>
    <tripinfo id="flow_1.21" depart="126.00" departLane="A2A3_0" departPos="7.60" departSpeed="0.00" departDelay="0.00" arrival="203.00" arrivalLane="C0B0_0" arrivalPos="85.60" arrivalSpeed="9.99" duration="77.00" routeLength="661.89" waitingTime="0.00" waitingCount="0" stopTime="0.00" timeLoss="9.55" rerouteNo="0" devices="tripinfo_flow_1.21 emissions_flow_1.21" vType="bus" speedFactor="1.04" vaporized="">
        <emissions CO_abs="2228.94" CO2_abs="163034.56" HC_abs="14.00" PMx_abs="2.72" NOx_abs="63.91" fuel_abs="52014.91" electricity_abs="0.00"/>
    </tripinfo>
    <tripinfo id="flow_1.22" depart="132.00" departLane="A2A3_0" departPos="7.60" departSpeed="0.00" departDelay="0.00" arrival="209.00" arrivalLane="C0B0_0" arrivalPos="85.60" arrivalSpeed="8.98" duration="77.00" routeLength="661.89" waitingTime="0.00" waitingCount="0" stopTime="0.00" timeLoss="9.15" rerouteNo="0" devices="tripinfo_flow_1.22 emissions_flow_1.22" vType="bus" speedFactor="1.09" vaporized="">
        <emissions CO_abs="2171.60" CO2_abs="157564.02" HC_abs="13.61" PMx_abs="2.64" NOx_abs="61.86" fuel_abs="50269.52" electricity_abs="0.00"/>
    </tripinfo>
    <tripinfo id="flow_0.24" depart="144.00" departLane="A4B4_0" departPos="4.60" departSpeed="0.00" departDelay="0.00" arrival="211.00" arrivalLane="E2D2_0" arrivalPos="85.60" arrivalSpeed="11.75" duration="67.00" routeLength="675.81" waitingTime="0.00" waitingCount="0" stopTime="0.00" timeLoss="10.47" rerouteNo="0" devices="tripinfo_flow_0.24 emissions_flow_0.24" vType="car" speedFactor="0.88" vaporized="">
        <emissions CO_abs="1839.47" CO2_abs="167878.03" HC_abs="12.37" PMx_abs="2.60" NOx_abs="65.08" fuel_abs="53561.27" electricity_abs="0.00"/>
    </tripinfo>
    <tripinfo id="flow_1.23" depart="138.00" departLane="A2A3_0" departPos="7.60" departSpeed="0.00" departDelay="0.00" arrival="216.00" arrivalLane="C0B0_0" arrivalPos="85.60" arrivalSpeed="9.87" duration="78.00" routeLength="661.89" waitingTime="0.00" waitingCount="0" stopTime="0.00" timeLoss="9.36" rerouteNo="0" devices="tripinfo_flow_1.23 emissions_flow_1.23" vType="bus" speedFactor="0.90" vaporized="">
        <emissions CO_abs="2316.88" CO2_abs="162404.79" HC_abs="14.41" PMx_abs="2.85" NOx_abs="64.55" fuel_abs="51813.60" electricity_abs="0.00"/>
    </tripinfo>
    <tripinfo id="flow_0.25" depart="150.00" departLane="A4B4_0" departPos="4.60" departSpeed="0.00" departDelay="0.00" arrival="219.00" arrivalLane="E2D2_0" arrivalPos="85.60" arrivalSpeed="11.58" duration="69.00" routeLength="675.81" waitingTime="0.00" waitingCount="0" stopTime="0.00" timeLoss="10.26" rerouteNo="0" devices="tripinfo_flow_0.25 emissions_flow_0.25" vType="car" speedFactor="0.85" vaporized="">